 Entering Gaussian System, Link 0=/uufs/chpc.utah.edu/sys/installdir/gaussian16/C01/AVX2/g16/g16
 Input=SecN5_clust-5.com
 Output=SecN5_clust-5.log
 Initial command:
 /uufs/chpc.utah.edu/sys/installdir/gaussian16/C01/AVX2/g16/l1.exe "/scratch/local/u6032257/5771829/notchpeak.peaks/Gau-867432.inp" -scrdir="/scratch/local/u6032257/5771829/notchpeak.peaks/"
 Entering Link 1 = /uufs/chpc.utah.edu/sys/installdir/gaussian16/C01/AVX2/g16/l1.exe PID=    867434.
  
 Copyright (c) 1988-2019, Gaussian, Inc.  All Rights Reserved.
  
 This is part of the Gaussian(R) 16 program.  It is based on
 the Gaussian(R) 09 system (copyright 2009, Gaussian, Inc.),
 the Gaussian(R) 03 system (copyright 2003, Gaussian, Inc.),
 the Gaussian(R) 98 system (copyright 1998, Gaussian, Inc.),
 the Gaussian(R) 94 system (copyright 1995, Gaussian, Inc.),
 the Gaussian 92(TM) system (copyright 1992, Gaussian, Inc.),
 the Gaussian 90(TM) system (copyright 1990, Gaussian, Inc.),
 the Gaussian 88(TM) system (copyright 1988, Gaussian, Inc.),
 the Gaussian 86(TM) system (copyright 1986, Carnegie Mellon
 University), and the Gaussian 82(TM) system (copyright 1983,
 Carnegie Mellon University). Gaussian is a federally registered
 trademark of Gaussian, Inc.
  
 This software contains proprietary and confidential information,
 including trade secrets, belonging to Gaussian, Inc.
  
 This software is provided under written license and may be
 used, copied, transmitted, or stored only in accord with that
 written license.
  
 The following legend is applicable only to US Government
 contracts under FAR:
  
                    RESTRICTED RIGHTS LEGEND
  
 Use, reproduction and disclosure by the US Government is
 subject to restrictions as set forth in subparagraphs (a)
 and (c) of the Commercial Computer Software - Restricted
 Rights clause in FAR 52.227-19.
  
 Gaussian, Inc.
 340 Quinnipiac St., Bldg. 40, Wallingford CT 06492
  
  
 ---------------------------------------------------------------
 Warning -- This program may not be used in any manner that
 competes with the business of Gaussian, Inc. or will provide
 assistance to any competitor of Gaussian, Inc.  The licensee
 of this program is prohibited from giving any competitor of
 Gaussian, Inc. access to this program.  By using this program,
 the user acknowledges that Gaussian, Inc. is engaged in the
 business of creating and licensing software in the field of
 computational chemistry and represents and warrants to the
 licensee that it is not a competitor of Gaussian, Inc. and that
 it will not use this program in any manner prohibited above.
 ---------------------------------------------------------------
  

 Cite this work as:
 Gaussian 16, Revision C.01,
 M. J. Frisch, G. W. Trucks, H. B. Schlegel, G. E. Scuseria, 
 M. A. Robb, J. R. Cheeseman, G. Scalmani, V. Barone, 
 G. A. Petersson, H. Nakatsuji, X. Li, M. Caricato, A. V. Marenich, 
 J. Bloino, B. G. Janesko, R. Gomperts, B. Mennucci, H. P. Hratchian, 
 J. V. Ortiz, A. F. Izmaylov, J. L. Sonnenberg, D. Williams-Young, 
 F. Ding, F. Lipparini, F. Egidi, J. Goings, B. Peng, A. Petrone, 
 T. Henderson, D. Ranasinghe, V. G. Zakrzewski, J. Gao, N. Rega, 
 G. Zheng, W. Liang, M. Hada, M. Ehara, K. Toyota, R. Fukuda, 
 J. Hasegawa, M. Ishida, T. Nakajima, Y. Honda, O. Kitao, H. Nakai, 
 T. Vreven, K. Throssell, J. A. Montgomery, Jr., J. E. Peralta, 
 F. Ogliaro, M. J. Bearpark, J. J. Heyd, E. N. Brothers, K. N. Kudin, 
 V. N. Staroverov, T. A. Keith, R. Kobayashi, J. Normand, 
 K. Raghavachari, A. P. Rendell, J. C. Burant, S. S. Iyengar, 
 J. Tomasi, M. Cossi, J. M. Millam, M. Klene, C. Adamo, R. Cammi, 
 J. W. Ochterski, R. L. Martin, K. Morokuma, O. Farkas, 
 J. B. Foresman, and D. J. Fox, Gaussian, Inc., Wallingford CT, 2019.
 
 ******************************************
 Gaussian 16:  ES64L-G16RevC.01  3-Jul-2019
                23-Sep-2022 
 ******************************************
 %NProcShared=64
 Will use up to   64 processors via shared memory.
 %mem=16GB
 %chk=SecN5_clust-5.chk
 ----------------------------------------------------------------------
 # B3LYP/6-31G(d,p) empiricaldispersion=GD3BJ int=(grid=ultrafine) opt 
 freq=noraman
 ----------------------------------------------------------------------
 1/18=20,19=15,26=4,38=1/1,3;
 2/9=110,12=2,17=6,18=5,40=1/2;
 3/5=1,6=6,7=101,11=2,25=1,30=1,71=1,74=-5,75=-5,124=41/1,2,3;
 4//1;
 5/5=2,38=5/2;
 6/7=2,8=2,9=2,10=2,28=1/1;
 7//1,2,3,16;
 1/18=20,19=15,26=4/3(2);
 2/9=110/2;
 99//99;
 2/9=110/2;
 3/5=1,6=6,7=101,11=2,25=1,30=1,71=1,74=-5,75=-5,124=41/1,2,3;
 4/5=5,16=3,69=1/1;
 5/5=2,38=5/2;
 7//1,2,3,16;
 1/18=20,19=15,26=4/3(-5);
 2/9=110/2;
 6/7=2,8=2,9=2,10=2,19=2,28=1/1;
 99/9=1/99;
 ---------
 SecN5.xyz
 ---------
 Symbolic Z-matrix:
 Charge =  0 Multiplicity = 1
 C                    -1.7628   -3.6166    4.0502 
 N                    -1.1666   -2.7087    3.0786 
 C                     0.2584   -2.5355    3.3226 
 C                     0.8432   -1.6307    2.2292 
 C                     0.8829   -2.2619    0.817 
 N                     0.9147   -1.2453   -0.2575 
 C                     2.2279   -1.0021   -0.7045 
 C                     2.7424   -1.4995   -1.9193 
 C                     1.8195   -2.1821   -2.9058 
 C                     0.6771   -1.2668   -3.3472 
 C                    -0.4722   -1.0725   -2.3636 
 C                    -0.3138   -1.0965   -0.9499 
 C                    -1.4715   -0.9089   -0.1707 
 C                    -2.7288   -0.7086   -0.7307 
 C                    -2.8657   -0.6784   -2.1098 
 C                    -1.7451   -0.8536   -2.9125 
 C                     4.0922   -1.296    -2.238 
 C                     4.9377   -0.6088   -1.3718 
 C                     4.4383   -0.1089   -0.1749 
 C                     3.0989   -0.311     0.1494 
 H                    -1.6702   -3.225     5.0652 
 H                    -1.302    -4.6058    4.0145 
 H                    -2.8268   -3.7413    3.843 
 H                    -1.3211   -3.0185    2.126 
 H                     0.4206   -2.0812    4.3028 
 H                     0.7679   -3.502     3.3102 
 H                     1.8783   -1.4665    2.5267 
 H                     0.407    -0.6308    2.2356 
 H                     1.7619   -2.9087    0.75 
 H                     0.0537   -2.9588    0.6795 
 H                     2.3912   -2.4819   -3.7852 
 H                     1.4458   -3.1145   -2.4793 
 H                     1.0695   -0.2832   -3.6113 
 H                     0.2717   -1.6667   -4.278 
 H                    -1.3985   -0.8947    0.9052 
 H                    -3.5878   -0.5643   -0.0918 
 H                    -3.8358   -0.5146   -2.5569 
 H                    -1.8728   -0.8229   -3.9851 
 H                     4.4898   -1.6639   -3.1729 
 H                     5.9753   -0.4568   -1.633 
 H                     5.0834    0.4318    0.5019 
 H                     2.7204    0.0838    1.0788 
 

 GradGradGradGradGradGradGradGradGradGradGradGradGradGradGradGradGradGrad
 Berny optimization.
 Initialization pass.
                           ----------------------------
                           !    Initial Parameters    !
                           ! (Angstroms and Degrees)  !
 --------------------------                            --------------------------
 ! Name  Definition              Value          Derivative Info.                !
 --------------------------------------------------------------------------------
 ! R1    R(1,2)                  1.4573         estimate D2E/DX2                !
 ! R2    R(1,21)                 1.0919         estimate D2E/DX2                !
 ! R3    R(1,22)                 1.0918         estimate D2E/DX2                !
 ! R4    R(1,23)                 1.0911         estimate D2E/DX2                !
 ! R5    R(2,3)                  1.4561         estimate D2E/DX2                !
 ! R6    R(2,24)                 1.0136         estimate D2E/DX2                !
 ! R7    R(3,4)                  1.535          estimate D2E/DX2                !
 ! R8    R(3,25)                 1.0925         estimate D2E/DX2                !
 ! R9    R(3,26)                 1.0926         estimate D2E/DX2                !
 ! R10   R(4,5)                  1.5474         estimate D2E/DX2                !
 ! R11   R(4,27)                 1.0894         estimate D2E/DX2                !
 ! R12   R(4,28)                 1.0909         estimate D2E/DX2                !
 ! R13   R(5,6)                  1.4795         estimate D2E/DX2                !
 ! R14   R(5,29)                 1.0934         estimate D2E/DX2                !
 ! R15   R(5,30)                 1.0919         estimate D2E/DX2                !
 ! R16   R(6,7)                  1.4083         estimate D2E/DX2                !
 ! R17   R(6,12)                 1.418          estimate D2E/DX2                !
 ! R18   R(7,8)                  1.4099         estimate D2E/DX2                !
 ! R19   R(7,20)                 1.4019         estimate D2E/DX2                !
 ! R20   R(8,9)                  1.5136         estimate D2E/DX2                !
 ! R21   R(8,17)                 1.4018         estimate D2E/DX2                !
 ! R22   R(9,10)                 1.5289         estimate D2E/DX2                !
 ! R23   R(9,31)                 1.0909         estimate D2E/DX2                !
 ! R24   R(9,32)                 1.0913         estimate D2E/DX2                !
 ! R25   R(10,11)                1.5252         estimate D2E/DX2                !
 ! R26   R(10,33)                1.0914         estimate D2E/DX2                !
 ! R27   R(10,34)                1.0912         estimate D2E/DX2                !
 ! R28   R(11,12)                1.4227         estimate D2E/DX2                !
 ! R29   R(11,16)                1.4034         estimate D2E/DX2                !
 ! R30   R(12,13)                1.4081         estimate D2E/DX2                !
 ! R31   R(13,14)                1.3909         estimate D2E/DX2                !
 ! R32   R(13,35)                1.0785         estimate D2E/DX2                !
 ! R33   R(14,15)                1.3862         estimate D2E/DX2                !
 ! R34   R(14,36)                1.0802         estimate D2E/DX2                !
 ! R35   R(15,16)                1.3895         estimate D2E/DX2                !
 ! R36   R(15,37)                1.0807         estimate D2E/DX2                !
 ! R37   R(16,38)                1.0806         estimate D2E/DX2                !
 ! R38   R(17,18)                1.3919         estimate D2E/DX2                !
 ! R39   R(17,39)                1.0805         estimate D2E/DX2                !
 ! R40   R(18,19)                1.3899         estimate D2E/DX2                !
 ! R41   R(18,40)                1.0807         estimate D2E/DX2                !
 ! R42   R(19,20)                1.3928         estimate D2E/DX2                !
 ! R43   R(19,41)                1.0801         estimate D2E/DX2                !
 ! R44   R(20,42)                1.0784         estimate D2E/DX2                !
 ! A1    A(2,1,21)             111.201          estimate D2E/DX2                !
 ! A2    A(2,1,22)             111.7138         estimate D2E/DX2                !
 ! A3    A(2,1,23)             110.0922         estimate D2E/DX2                !
 ! A4    A(21,1,22)            108.6351         estimate D2E/DX2                !
 ! A5    A(21,1,23)            107.4706         estimate D2E/DX2                !
 ! A6    A(22,1,23)            107.5653         estimate D2E/DX2                !
 ! A7    A(1,2,3)              111.2699         estimate D2E/DX2                !
 ! A8    A(1,2,24)             111.9519         estimate D2E/DX2                !
 ! A9    A(3,2,24)             110.0618         estimate D2E/DX2                !
 ! A10   A(2,3,4)              108.8807         estimate D2E/DX2                !
 ! A11   A(2,3,25)             110.1891         estimate D2E/DX2                !
 ! A12   A(2,3,26)             110.4402         estimate D2E/DX2                !
 ! A13   A(4,3,25)             109.7204         estimate D2E/DX2                !
 ! A14   A(4,3,26)             109.6131         estimate D2E/DX2                !
 ! A15   A(25,3,26)            107.9863         estimate D2E/DX2                !
 ! A16   A(3,4,5)              114.7984         estimate D2E/DX2                !
 ! A17   A(3,4,27)             104.8507         estimate D2E/DX2                !
 ! A18   A(3,4,28)             112.5667         estimate D2E/DX2                !
 ! A19   A(5,4,27)             106.6382         estimate D2E/DX2                !
 ! A20   A(5,4,28)             112.9234         estimate D2E/DX2                !
 ! A21   A(27,4,28)            103.8956         estimate D2E/DX2                !
 ! A22   A(4,5,6)              112.5241         estimate D2E/DX2                !
 ! A23   A(4,5,29)             108.5337         estimate D2E/DX2                !
 ! A24   A(4,5,30)             110.8433         estimate D2E/DX2                !
 ! A25   A(6,5,29)             110.1624         estimate D2E/DX2                !
 ! A26   A(6,5,30)             111.3107         estimate D2E/DX2                !
 ! A27   A(29,5,30)            103.0172         estimate D2E/DX2                !
 ! A28   A(5,6,7)              111.6661         estimate D2E/DX2                !
 ! A29   A(5,6,12)             114.0852         estimate D2E/DX2                !
 ! A30   A(7,6,12)             129.3992         estimate D2E/DX2                !
 ! A31   A(6,7,8)              123.56           estimate D2E/DX2                !
 ! A32   A(6,7,20)             118.1069         estimate D2E/DX2                !
 ! A33   A(8,7,20)             118.1638         estimate D2E/DX2                !
 ! A34   A(7,8,9)              119.8791         estimate D2E/DX2                !
 ! A35   A(7,8,17)             119.7401         estimate D2E/DX2                !
 ! A36   A(9,8,17)             120.294          estimate D2E/DX2                !
 ! A37   A(8,9,10)             111.9487         estimate D2E/DX2                !
 ! A38   A(8,9,31)             109.2567         estimate D2E/DX2                !
 ! A39   A(8,9,32)             109.8403         estimate D2E/DX2                !
 ! A40   A(10,9,31)            108.8665         estimate D2E/DX2                !
 ! A41   A(10,9,32)            111.6199         estimate D2E/DX2                !
 ! A42   A(31,9,32)            105.0524         estimate D2E/DX2                !
 ! A43   A(9,10,11)            116.9445         estimate D2E/DX2                !
 ! A44   A(9,10,33)            109.9214         estimate D2E/DX2                !
 ! A45   A(9,10,34)            107.7261         estimate D2E/DX2                !
 ! A46   A(11,10,33)           108.1903         estimate D2E/DX2                !
 ! A47   A(11,10,34)           108.4727         estimate D2E/DX2                !
 ! A48   A(33,10,34)           104.9184         estimate D2E/DX2                !
 ! A49   A(10,11,12)           123.6948         estimate D2E/DX2                !
 ! A50   A(10,11,16)           116.8158         estimate D2E/DX2                !
 ! A51   A(12,11,16)           119.4887         estimate D2E/DX2                !
 ! A52   A(6,12,11)            125.6905         estimate D2E/DX2                !
 ! A53   A(6,12,13)            117.1345         estimate D2E/DX2                !
 ! A54   A(11,12,13)           117.1346         estimate D2E/DX2                !
 ! A55   A(12,13,14)           122.6577         estimate D2E/DX2                !
 ! A56   A(12,13,35)           119.8791         estimate D2E/DX2                !
 ! A57   A(14,13,35)           117.449          estimate D2E/DX2                !
 ! A58   A(13,14,15)           119.5362         estimate D2E/DX2                !
 ! A59   A(13,14,36)           119.996          estimate D2E/DX2                !
 ! A60   A(15,14,36)           120.4624         estimate D2E/DX2                !
 ! A61   A(14,15,16)           119.4937         estimate D2E/DX2                !
 ! A62   A(14,15,37)           120.2362         estimate D2E/DX2                !
 ! A63   A(16,15,37)           120.2694         estimate D2E/DX2                !
 ! A64   A(11,16,15)           121.6819         estimate D2E/DX2                !
 ! A65   A(11,16,38)           119.9897         estimate D2E/DX2                !
 ! A66   A(15,16,38)           118.3277         estimate D2E/DX2                !
 ! A67   A(8,17,18)            121.0047         estimate D2E/DX2                !
 ! A68   A(8,17,39)            120.1077         estimate D2E/DX2                !
 ! A69   A(18,17,39)           118.8837         estimate D2E/DX2                !
 ! A70   A(17,18,19)           119.6832         estimate D2E/DX2                !
 ! A71   A(17,18,40)           120.1481         estimate D2E/DX2                !
 ! A72   A(19,18,40)           120.1662         estimate D2E/DX2                !
 ! A73   A(18,19,20)           119.5926         estimate D2E/DX2                !
 ! A74   A(18,19,41)           120.3349         estimate D2E/DX2                !
 ! A75   A(20,19,41)           120.0725         estimate D2E/DX2                !
 ! A76   A(7,20,19)            121.8138         estimate D2E/DX2                !
 ! A77   A(7,20,42)            119.1667         estimate D2E/DX2                !
 ! A78   A(19,20,42)           119.0168         estimate D2E/DX2                !
 ! D1    D(21,1,2,3)            61.6448         estimate D2E/DX2                !
 ! D2    D(21,1,2,24)         -174.7283         estimate D2E/DX2                !
 ! D3    D(22,1,2,3)           -59.9147         estimate D2E/DX2                !
 ! D4    D(22,1,2,24)           63.7122         estimate D2E/DX2                !
 ! D5    D(23,1,2,3)          -179.358          estimate D2E/DX2                !
 ! D6    D(23,1,2,24)          -55.7311         estimate D2E/DX2                !
 ! D7    D(1,2,3,4)            177.1            estimate D2E/DX2                !
 ! D8    D(1,2,3,25)           -62.5207         estimate D2E/DX2                !
 ! D9    D(1,2,3,26)            56.6987         estimate D2E/DX2                !
 ! D10   D(24,2,3,4)            52.4036         estimate D2E/DX2                !
 ! D11   D(24,2,3,25)          172.7829         estimate D2E/DX2                !
 ! D12   D(24,2,3,26)          -67.9977         estimate D2E/DX2                !
 ! D13   D(2,3,4,5)            -68.6955         estimate D2E/DX2                !
 ! D14   D(2,3,4,27)           174.6364         estimate D2E/DX2                !
 ! D15   D(2,3,4,28)            62.3494         estimate D2E/DX2                !
 ! D16   D(25,3,4,5)           170.6366         estimate D2E/DX2                !
 ! D17   D(25,3,4,27)           53.9685         estimate D2E/DX2                !
 ! D18   D(25,3,4,28)          -58.3185         estimate D2E/DX2                !
 ! D19   D(26,3,4,5)            52.2145         estimate D2E/DX2                !
 ! D20   D(26,3,4,27)          -64.4536         estimate D2E/DX2                !
 ! D21   D(26,3,4,28)         -176.7406         estimate D2E/DX2                !
 ! D22   D(3,4,5,6)            156.647          estimate D2E/DX2                !
 ! D23   D(3,4,5,29)           -81.1724         estimate D2E/DX2                !
 ! D24   D(3,4,5,30)            31.2753         estimate D2E/DX2                !
 ! D25   D(27,4,5,6)           -87.7111         estimate D2E/DX2                !
 ! D26   D(27,4,5,29)           34.4694         estimate D2E/DX2                !
 ! D27   D(27,4,5,30)          146.9172         estimate D2E/DX2                !
 ! D28   D(28,4,5,6)            25.7744         estimate D2E/DX2                !
 ! D29   D(28,4,5,29)          147.955          estimate D2E/DX2                !
 ! D30   D(28,4,5,30)          -99.5973         estimate D2E/DX2                !
 ! D31   D(4,5,6,7)             96.8052         estimate D2E/DX2                !
 ! D32   D(4,5,6,12)          -105.4234         estimate D2E/DX2                !
 ! D33   D(29,5,6,7)           -24.4499         estimate D2E/DX2                !
 ! D34   D(29,5,6,12)          133.3214         estimate D2E/DX2                !
 ! D35   D(30,5,6,7)          -138.0779         estimate D2E/DX2                !
 ! D36   D(30,5,6,12)           19.6934         estimate D2E/DX2                !
 ! D37   D(5,6,7,8)            103.9794         estimate D2E/DX2                !
 ! D38   D(5,6,7,20)           -71.1978         estimate D2E/DX2                !
 ! D39   D(12,6,7,8)           -49.4732         estimate D2E/DX2                !
 ! D40   D(12,6,7,20)          135.3497         estimate D2E/DX2                !
 ! D41   D(5,6,12,11)         -131.6466         estimate D2E/DX2                !
 ! D42   D(5,6,12,13)           50.7414         estimate D2E/DX2                !
 ! D43   D(7,6,12,11)           21.2902         estimate D2E/DX2                !
 ! D44   D(7,6,12,13)         -156.3218         estimate D2E/DX2                !
 ! D45   D(6,7,8,9)              8.3063         estimate D2E/DX2                !
 ! D46   D(6,7,8,17)          -175.0718         estimate D2E/DX2                !
 ! D47   D(20,7,8,9)          -176.5191         estimate D2E/DX2                !
 ! D48   D(20,7,8,17)            0.1028         estimate D2E/DX2                !
 ! D49   D(6,7,20,19)          175.5206         estimate D2E/DX2                !
 ! D50   D(6,7,20,42)           -5.0844         estimate D2E/DX2                !
 ! D51   D(8,7,20,19)            0.0786         estimate D2E/DX2                !
 ! D52   D(8,7,20,42)          179.4736         estimate D2E/DX2                !
 ! D53   D(7,8,9,10)            58.4077         estimate D2E/DX2                !
 ! D54   D(7,8,9,31)           179.0767         estimate D2E/DX2                !
 ! D55   D(7,8,9,32)           -66.1832         estimate D2E/DX2                !
 ! D56   D(17,8,9,10)         -118.1952         estimate D2E/DX2                !
 ! D57   D(17,8,9,31)            2.4738         estimate D2E/DX2                !
 ! D58   D(17,8,9,32)          117.214          estimate D2E/DX2                !
 ! D59   D(7,8,17,18)            0.0322         estimate D2E/DX2                !
 ! D60   D(7,8,17,39)         -179.2386         estimate D2E/DX2                !
 ! D61   D(9,8,17,18)          176.6398         estimate D2E/DX2                !
 ! D62   D(9,8,17,39)           -2.631          estimate D2E/DX2                !
 ! D63   D(8,9,10,11)          -76.8806         estimate D2E/DX2                !
 ! D64   D(8,9,10,33)           46.9469         estimate D2E/DX2                !
 ! D65   D(8,9,10,34)          160.7329         estimate D2E/DX2                !
 ! D66   D(31,9,10,11)         162.2241         estimate D2E/DX2                !
 ! D67   D(31,9,10,33)         -73.9484         estimate D2E/DX2                !
 ! D68   D(31,9,10,34)          39.8376         estimate D2E/DX2                !
 ! D69   D(32,9,10,11)          46.7152         estimate D2E/DX2                !
 ! D70   D(32,9,10,33)         170.5427         estimate D2E/DX2                !
 ! D71   D(32,9,10,34)         -75.6713         estimate D2E/DX2                !
 ! D72   D(9,10,11,12)          31.6282         estimate D2E/DX2                !
 ! D73   D(9,10,11,16)        -148.6716         estimate D2E/DX2                !
 ! D74   D(33,10,11,12)        -93.0771         estimate D2E/DX2                !
 ! D75   D(33,10,11,16)         86.6232         estimate D2E/DX2                !
 ! D76   D(34,10,11,12)        153.627          estimate D2E/DX2                !
 ! D77   D(34,10,11,16)        -26.6727         estimate D2E/DX2                !
 ! D78   D(10,11,12,6)           2.737          estimate D2E/DX2                !
 ! D79   D(10,11,12,13)       -179.6509         estimate D2E/DX2                !
 ! D80   D(16,11,12,6)        -176.9557         estimate D2E/DX2                !
 ! D81   D(16,11,12,13)          0.6564         estimate D2E/DX2                !
 ! D82   D(10,11,16,15)        179.3026         estimate D2E/DX2                !
 ! D83   D(10,11,16,38)         -0.3885         estimate D2E/DX2                !
 ! D84   D(12,11,16,15)         -0.9839         estimate D2E/DX2                !
 ! D85   D(12,11,16,38)        179.325          estimate D2E/DX2                !
 ! D86   D(6,12,13,14)         177.9124         estimate D2E/DX2                !
 ! D87   D(6,12,13,35)          -0.6792         estimate D2E/DX2                !
 ! D88   D(11,12,13,14)          0.0916         estimate D2E/DX2                !
 ! D89   D(11,12,13,35)       -178.5            estimate D2E/DX2                !
 ! D90   D(12,13,14,15)         -0.5448         estimate D2E/DX2                !
 ! D91   D(12,13,14,36)       -179.7004         estimate D2E/DX2                !
 ! D92   D(35,13,14,15)        178.0791         estimate D2E/DX2                !
 ! D93   D(35,13,14,36)         -1.0765         estimate D2E/DX2                !
 ! D94   D(13,14,15,16)          0.2323         estimate D2E/DX2                !
 ! D95   D(13,14,15,37)       -179.4447         estimate D2E/DX2                !
 ! D96   D(36,14,15,16)        179.3839         estimate D2E/DX2                !
 ! D97   D(36,14,15,37)         -0.2932         estimate D2E/DX2                !
 ! D98   D(14,15,16,11)          0.5301         estimate D2E/DX2                !
 ! D99   D(14,15,16,38)       -179.7738         estimate D2E/DX2                !
 ! D100  D(37,15,16,11)       -179.7929         estimate D2E/DX2                !
 ! D101  D(37,15,16,38)         -0.0969         estimate D2E/DX2                !
 ! D102  D(8,17,18,19)          -0.3491         estimate D2E/DX2                !
 ! D103  D(8,17,18,40)        -179.7847         estimate D2E/DX2                !
 ! D104  D(39,17,18,19)        178.9306         estimate D2E/DX2                !
 ! D105  D(39,17,18,40)         -0.505          estimate D2E/DX2                !
 ! D106  D(17,18,19,20)          0.5241         estimate D2E/DX2                !
 ! D107  D(17,18,19,41)       -179.5802         estimate D2E/DX2                !
 ! D108  D(40,18,19,20)        179.9596         estimate D2E/DX2                !
 ! D109  D(40,18,19,41)         -0.1447         estimate D2E/DX2                !
 ! D110  D(18,19,20,7)          -0.395          estimate D2E/DX2                !
 ! D111  D(18,19,20,42)       -179.7908         estimate D2E/DX2                !
 ! D112  D(41,19,20,7)         179.709          estimate D2E/DX2                !
 ! D113  D(41,19,20,42)          0.3132         estimate D2E/DX2                !
 --------------------------------------------------------------------------------
 Trust Radius=3.00D-01 FncErr=1.00D-07 GrdErr=1.00D-06 EigMax=2.50D+02 EigMin=1.00D-04
 Number of steps in this run=    245 maximum allowed number of steps=    252.
 GradGradGradGradGradGradGradGradGradGradGradGradGradGradGradGradGradGrad

                          Input orientation:                          
 ---------------------------------------------------------------------
 Center     Atomic      Atomic             Coordinates (Angstroms)
 Number     Number       Type             X           Y           Z
 ---------------------------------------------------------------------
      1          6           0       -1.762800   -3.616600    4.050200
      2          7           0       -1.166600   -2.708700    3.078600
      3          6           0        0.258400   -2.535500    3.322600
      4          6           0        0.843200   -1.630700    2.229200
      5          6           0        0.882900   -2.261900    0.817000
      6          7           0        0.914700   -1.245300   -0.257500
      7          6           0        2.227900   -1.002100   -0.704500
      8          6           0        2.742400   -1.499500   -1.919300
      9          6           0        1.819500   -2.182100   -2.905800
     10          6           0        0.677100   -1.266800   -3.347200
     11          6           0       -0.472200   -1.072500   -2.363600
     12          6           0       -0.313800   -1.096500   -0.949900
     13          6           0       -1.471500   -0.908900   -0.170700
     14          6           0       -2.728800   -0.708600   -0.730700
     15          6           0       -2.865700   -0.678400   -2.109800
     16          6           0       -1.745100   -0.853600   -2.912500
     17          6           0        4.092200   -1.296000   -2.238000
     18          6           0        4.937700   -0.608800   -1.371800
     19          6           0        4.438300   -0.108900   -0.174900
     20          6           0        3.098900   -0.311000    0.149400
     21          1           0       -1.670200   -3.225000    5.065200
     22          1           0       -1.302000   -4.605800    4.014500
     23          1           0       -2.826800   -3.741300    3.843000
     24          1           0       -1.321100   -3.018500    2.126000
     25          1           0        0.420600   -2.081200    4.302800
     26          1           0        0.767900   -3.502000    3.310200
     27          1           0        1.878300   -1.466500    2.526700
     28          1           0        0.407000   -0.630800    2.235600
     29          1           0        1.761900   -2.908700    0.750000
     30          1           0        0.053700   -2.958800    0.679500
     31          1           0        2.391200   -2.481900   -3.785200
     32          1           0        1.445800   -3.114500   -2.479300
     33          1           0        1.069500   -0.283200   -3.611300
     34          1           0        0.271700   -1.666700   -4.278000
     35          1           0       -1.398500   -0.894700    0.905200
     36          1           0       -3.587800   -0.564300   -0.091800
     37          1           0       -3.835800   -0.514600   -2.556900
     38          1           0       -1.872800   -0.822900   -3.985100
     39          1           0        4.489800   -1.663900   -3.172900
     40          1           0        5.975300   -0.456800   -1.633000
     41          1           0        5.083400    0.431800    0.501900
     42          1           0        2.720400    0.083800    1.078800
 ---------------------------------------------------------------------
                    Distance matrix (angstroms):
                    1          2          3          4          5
     1  C    0.000000
     2  N    1.457307   0.000000
     3  C    2.404876   1.456077   0.000000
     4  C    3.748476   2.433693   1.534985   0.000000
     5  C    4.391870   3.084626   2.596707   1.547352   0.000000
     6  N    5.598960   4.195582   3.861666   2.517404   1.479539
     7  C    6.735612   5.361619   4.737909   3.304410   2.389787
     8  C    7.772636   6.459214   5.892459   4.564452   3.395045
     9  C    7.954659   6.708736   6.430777   5.255990   3.839639
    10  C    8.136105   6.838802   6.802289   5.590729   4.286390
    11  C    7.019610   5.725110   5.916673   4.809956   3.656116
    12  C    5.783728   4.422134   4.544490   3.425010   2.431498
    13  C    5.023195   3.726955   4.223923   3.411503   2.889526
    14  C    5.678611   4.577296   5.356320   4.729742   4.225221
    15  C    6.913393   5.824822   6.536038   5.787032   5.012548
    16  C    7.490906   6.298360   6.761603   5.808637   4.774816
    17  C    8.899869   7.610318   6.866925   5.533887   4.534930
    18  C    9.129165   7.840798   6.902566   5.547649   4.895405
    19  C    8.283059   6.982774   5.965941   4.584792   4.273189
    20  C    7.055449   5.702953   4.804793   3.339964   3.026938
    21  H    1.091856   2.113471   2.689157   4.111188   5.049068
    22  H    1.091846   2.119724   2.683229   4.079265   4.526772
    23  H    1.091136   2.099246   3.353092   4.530771   5.010706
    24  H    2.062854   1.013555   2.039598   2.573098   2.672740
    25  H    2.681137   2.100387   1.092469   2.163645   3.520962
    26  H    2.639162   2.103629   1.092642   2.162405   2.786955
    27  H    4.494618   3.334527   2.097688   1.089449   2.132266
    28  H    4.112883   2.739441   2.198075   1.090922   2.213457
    29  H    4.880159   3.746797   3.003009   2.159937   1.093380
    30  H    3.885099   2.703213   2.684597   2.188317   1.091856
    31  H    8.940736   7.734412   7.421087   6.268481   4.848053
    32  H    7.292571   6.154637   5.950395   4.973405   3.450997
    33  H    8.822248   7.459085   7.335510   5.998200   4.853856
    34  H    8.792054   7.567961   7.650105   6.532347   5.165932
    35  H    4.175222   2.840430   3.358774   2.705530   2.661165
    36  H    5.459242   4.529028   5.507904   5.114490   4.867743
    37  H    7.587721   6.610413   7.444127   6.785682   6.058250
    38  H    8.507814   7.345122   7.802403   6.829841   5.720557
    39  H    9.750960   8.495159   7.801023   6.517782   5.411713
    40  H   10.107487   8.847427   7.846140   6.529401   5.932405
    41  H    8.709215   7.454168   6.327862   5.021630   4.999951
    42  H    6.528496   5.187102   4.237548   2.790486   2.991196
                    6          7          8          9         10
     6  N    0.000000
     7  C    1.408350   0.000000
     8  C    2.483281   1.409913   0.000000
     9  C    2.951229   2.530793   1.513562   0.000000
    10  C    3.098897   3.075534   2.521609   1.528949   0.000000
    11  C    2.527649   3.169875   3.273131   2.603283   1.525160
    12  C    1.418017   2.555263   3.231486   3.091123   2.599602
    13  C    2.411358   3.738875   4.600366   4.464582   3.851588
    14  C    3.713093   4.965451   5.654407   5.252551   4.331029
    15  C    4.247801   5.293809   5.671092   4.984559   3.798527
    16  C    3.778490   4.547752   4.641259   3.804120   2.495346
    17  C    3.744524   2.431792   1.401764   2.529090   3.590834
    18  C    4.222715   2.818331   2.431552   3.814656   4.742139
    19  C    3.703240   2.442161   2.802281   4.314405   5.054784
    20  C    2.410231   1.401929   2.412290   3.804225   4.359459
    21  H    6.239556   7.309303   8.439883   8.763703   8.950578
    22  H    5.869983   6.907663   7.824082   7.969231   8.322282
    23  H    6.086291   7.330277   8.321404   8.340594   8.372541
    24  H    3.718079   4.967192   5.931597   5.990154   6.084174
    25  H    4.662531   5.431744   6.666608   7.343774   7.697502
    26  H    4.224065   4.949638   5.937704   6.441013   7.023200
    27  H    2.954526   3.283069   4.529313   5.479744   5.998788
    28  H    2.617426   3.478179   4.844783   5.552989   5.625398
    29  H    2.121250   2.442918   3.173702   3.727753   4.545291
    30  H    2.134332   3.235935   4.014029   4.071325   4.412007
    31  H    4.019191   3.421577   2.137764   1.090901   2.146264
    32  H    2.951673   2.867722   2.145460   1.091295   2.181317
    33  H    3.492503   3.210638   2.672236   2.160105   1.091419
    34  H    4.093342   4.127749   3.419909   2.131726   1.091173
    35  H    2.612601   3.969061   5.048825   5.151373   4.746523
    36  H    4.556723   5.864251   6.654757   6.306724   5.411147
    37  H    5.328078   6.359049   6.682011   5.906328   4.642913
    38  H    4.673712   5.254540   5.101508   4.079877   2.665699
    39  H    4.632075   3.412795   2.156837   2.733199   3.837284
    40  H    5.303150   3.899035   3.408934   4.676254   5.627211
    41  H    4.557128   3.415458   3.882320   5.394250   6.092314
    42  H    2.610126   2.145203   3.390564   4.671505   5.058525
                   11         12         13         14         15
    11  C    0.000000
    12  C    1.422749   0.000000
    13  C    2.415404   1.408054   0.000000
    14  C    2.809098   2.455757   1.390871   0.000000
    15  C    2.438969   2.834143   2.399382   1.386207   0.000000
    16  C    1.403383   2.441192   2.755972   2.397695   1.389520
    17  C    4.571594   4.594762   5.947969   7.010209   6.986432
    18  C    5.519575   5.290945   6.527675   7.693906   7.838529
    19  C    5.461863   4.915123   5.963703   7.213590   7.577373
    20  C    4.432585   3.670421   4.620444   5.907178   6.388695
    21  H    7.826591   6.523171   5.728739   6.406665   7.706816
    22  H    7.338456   6.159301   5.586743   6.304034   7.441551
    23  H    7.154615   6.023456   5.095990   5.488680   6.694677
    24  H    4.966292   3.764293   3.122157   3.934208   5.079750
    25  H    6.801136   5.394426   4.996652   6.094167   7.340916
    26  H    6.295421   5.010485   4.884234   6.029831   7.110005
    27  H    5.440140   4.126615   4.336824   5.693017   6.680103
    28  H    4.703268   3.299066   3.065352   4.317202   5.440159
    29  H    4.249393   3.237632   3.911747   5.215295   5.879403
    30  H    3.618723   2.501632   2.692799   3.846345   4.637167
    31  H    3.493768   4.156355   5.519003   6.220045   5.804703
    32  H    2.803903   3.083436   4.324921   5.125743   4.965898
    33  H    2.134617   3.107736   4.322720   4.786011   4.230424
    34  H    2.138080   3.426979   4.525806   4.743869   3.939684
    35  H    3.402161   2.158401   1.078467   2.116719   3.360013
    36  H    3.889255   3.426171   2.145623   1.080230   2.146339
    37  H    3.415029   3.914785   3.382209   2.144316   1.080659
    38  H    2.157138   3.423124   3.836416   3.367034   2.126848
    39  H    5.062229   5.323368   6.717167   7.680177   7.496984
    40  H    6.517908   6.358350   7.602470   8.754365   8.856620
    41  H    6.429518   5.794238   6.724328   7.990637   8.440481
    42  H    4.835271   3.836027   4.485391   5.796203   6.477085
                   16         17         18         19         20
    16  C    0.000000
    17  C    5.892770   0.000000
    18  C    6.862470   1.391911   0.000000
    19  C    6.803195   2.405280   1.389917   0.000000
    20  C    5.756213   2.767047   2.404978   1.392841   0.000000
    21  H    8.323031   9.500686   9.588734   8.630324   7.443171
    22  H    7.890416   8.896400   9.160900   8.409770   7.263073
    23  H    7.426013   9.530510   9.863780   9.061983   7.779689
    24  H    5.500277   7.163471   7.563983   6.850591   5.547423
    25  H    7.632681   7.541833   7.400894   6.331009   5.249536
    26  H    7.214651   6.833735   6.904995   6.093512   5.060306
    27  H    6.564265   5.256690   5.029302   3.961732   2.911460
    28  H    5.584273   5.834063   5.791465   4.725915   3.420647
    29  H    5.471416   4.118160   4.458394   3.982140   2.982672
    30  H    4.535418   5.252256   5.795152   5.298740   4.070024
    31  H    4.530115   2.587197   3.977143   4.780796   4.549145
    32  H    3.934612   3.220031   4.438294   4.826898   4.183589
    33  H    2.955613   3.471085   4.481556   4.815396   4.273418
    34  H    2.567724   4.346865   5.597920   6.051671   5.425205
    35  H    3.833622   6.339443   6.738983   5.987682   4.597667
    36  H    3.381654   8.007744   8.621168   8.039439   6.695842
    37  H    2.147650   7.972795   8.853679   8.619701   7.446850
    38  H    1.080611   6.233571   7.297814   7.406578   6.486442
    39  H    6.292724   1.080497   2.134903   3.377674   3.847417
    40  H    7.835761   2.148569   1.080714   2.146965   3.387017
    41  H    7.742015   3.387451   2.148215   1.080078   2.148080
    42  H    6.062168   3.845367   3.376619   2.135434   1.078385
                   21         22         23         24         25
    21  H    0.000000
    22  H    1.773739   0.000000
    23  H    1.760131   1.761189   0.000000
    24  H    2.967054   2.467046   2.395342   0.000000
    25  H    2.502194   3.069865   3.675997   2.941175   0.000000
    26  H    3.016801   2.449265   3.641841   2.449494   1.767638
    27  H    4.704057   4.709890   5.389372   3.578467   2.378503
    28  H    4.364776   4.678225   4.766173   2.949484   2.525304
    29  H    5.522708   4.787963   5.596074   3.377917   3.886673
    30  H    4.719858   3.958883   4.349404   1.996497   3.746078
    31  H    9.766102   8.887407   9.327542   7.000814   8.334241
    32  H    8.163403   7.207206   7.656335   5.373429   6.936543
    33  H    9.562520   9.080843   9.094295   6.790688   8.141674
    34  H    9.669264   8.937583   8.936180   6.736141   8.592096
    35  H    4.775952   4.842450   4.332879   2.450892   4.032443
    36  H    6.111560   6.198411   5.114206   4.009946   6.138466
    37  H    8.374515   8.145020   7.237983   5.875609   8.223543
    38  H    9.365845   8.867341   8.408705   6.516945   8.690931
    39  H   10.404274   9.688057  10.347516   7.979965   8.521656
    40  H   10.534822  10.102849  10.874350   8.598246   8.290180
    41  H    8.933477   8.859408   9.547197   7.453851   6.519487
    42  H    6.790943   6.840350   7.283105   5.201405   4.513367
                   26         27         28         29         30
    26  H    0.000000
    27  H    2.447472   0.000000
    28  H    3.086876   1.716933   0.000000
    29  H    2.809745   2.291321   3.038353   0.000000
    30  H    2.779520   2.994707   2.822384   1.710388   0.000000
    31  H    7.349858   6.413594   6.604063   4.598501   5.062103
    32  H    5.841919   5.288005   5.429379   3.251254   3.455460
    33  H    7.639293   6.303126   5.894571   5.137471   5.157679
    34  H    7.822744   6.994654   6.596846   5.389253   5.127753
    35  H    4.156360   3.700491   2.258193   3.750788   2.533838
    36  H    6.259058   6.127704   4.623812   5.901197   4.425953
    37  H    8.033771   7.707142   6.401790   6.928315   5.619307
    38  H    8.208062   7.542447   6.628084   6.323194   5.480143
    39  H    7.698165   6.272507   6.854810   4.937622   6.016372
    40  H    7.799069   5.925201   6.782500   5.426163   6.831765
    41  H    6.479573   4.239814   5.099368   4.717293   6.068409
    42  H    4.652888   2.282318   2.683404   3.159413   4.065482
                   31         32         33         34         35
    31  H    0.000000
    32  H    1.731860   0.000000
    33  H    2.571267   3.072342   0.000000
    34  H    2.323722   2.590359   1.730620   0.000000
    35  H    6.235454   4.946958   5.183023   5.500101   0.000000
    36  H    7.284699   6.127055   5.844343   5.799595   2.428211
    37  H    6.644887   5.887342   5.022676   4.600117   4.251005
    38  H    4.579731   4.304877   3.014653   2.323073   4.913771
    39  H    2.334129   3.442566   3.714429   4.360461   7.203794
    40  H    4.645295   5.319395   5.292512   6.402416   7.810707
    41  H    5.840960   5.890325   5.791462   7.099550   6.628520
    42  H    5.509055   4.951142   4.985699   6.144566   4.237091
                   36         37         38         39         40
    36  H    0.000000
    37  H    2.478042   0.000000
    38  H    4.262145   2.447074   0.000000
    39  H    8.714925   8.427097   6.469129   0.000000
    40  H    9.687091   9.854675   8.201163   2.456643   0.000000
    41  H    8.748394   9.476500   8.372345   4.271823   2.478486
    42  H    6.448544   7.520649   6.896570   4.925666   4.270888
                   41         42
    41  H    0.000000
    42  H    2.457170   0.000000
 Stoichiometry    C18H22N2
 Framework group  C1[X(C18H22N2)]
 Deg. of freedom   120
 Full point group                 C1      NOp   1
 Largest Abelian subgroup         C1      NOp   1
 Largest concise Abelian subgroup C1      NOp   1
                         Standard orientation:                         
 ---------------------------------------------------------------------
 Center     Atomic      Atomic             Coordinates (Angstroms)
 Number     Number       Type             X           Y           Z
 ---------------------------------------------------------------------
      1          6           0        5.167171   -1.449672    0.830743
      2          7           0        3.879294   -1.111483    0.238505
      3          6           0        3.029950   -2.287622    0.114115
      4          6           0        1.666541   -1.858780   -0.445694
      5          6           0        0.809224   -1.003742    0.517746
      6          7           0       -0.187203   -0.174122   -0.194926
      7          6           0       -1.452790   -0.791318   -0.223369
      8          6           0       -2.530406   -0.397905    0.596282
      9          6           0       -2.421429    0.858192    1.433667
     10          6           0       -2.151744    2.095030    0.576236
     11          6           0       -0.728544    2.281611    0.060678
     12          6           0        0.143989    1.203327   -0.255876
     13          6           0        1.433411    1.534094   -0.714788
     14          6           0        1.863952    2.848603   -0.860471
     15          6           0        0.999123    3.888560   -0.556941
     16          6           0       -0.283896    3.602104   -0.106862
     17          6           0       -3.723461   -1.133559    0.576968
     18          6           0       -3.863400   -2.251337   -0.240594
     19          6           0       -2.809077   -2.643210   -1.057116
     20          6           0       -1.619615   -1.918719   -1.039789
     21          1           0        5.714438   -2.159346    0.207035
     22          1           0        5.052945   -1.877941    1.828574
     23          1           0        5.783024   -0.553933    0.925371
     24          1           0        3.398837   -0.389578    0.763201
     25          1           0        3.491058   -3.016461   -0.556453
     26          1           0        2.893178   -2.764233    1.087769
     27          1           0        1.123797   -2.790220   -0.603011
     28          1           0        1.741207   -1.427112   -1.444793
     29          1           0        0.307892   -1.672138    1.223007
     30          1           0        1.443155   -0.394164    1.164811
     31          1           0       -3.352090    1.006059    1.983277
     32          1           0       -1.656887    0.726506    2.201169
     33          1           0       -2.828763    2.108978   -0.279711
     34          1           0       -2.424299    2.972831    1.164316
     35          1           0        2.122651    0.751780   -0.990516
     36          1           0        2.861444    3.053360   -1.221000
     37          1           0        1.318832    4.914122   -0.674553
     38          1           0       -0.943604    4.427162    0.120701
     39          1           0       -4.557327   -0.830189    1.193497
     40          1           0       -4.790685   -2.806354   -0.247132
     41          1           0       -2.908622   -3.504891   -1.700673
     42          1           0       -0.808819   -2.228934   -1.679547
 ---------------------------------------------------------------------
 Rotational constants (GHZ):           0.4072606           0.2763015           0.1800797
 Standard basis: 6-31G(d,p) (6D, 7F)
 There are   410 symmetry adapted cartesian basis functions of A   symmetry.
 There are   410 symmetry adapted basis functions of A   symmetry.
   410 basis functions,   714 primitive gaussians,   410 cartesian basis functions
    72 alpha electrons       72 beta electrons
       nuclear repulsion energy      1525.0546787111 Hartrees.
 NAtoms=   42 NActive=   42 NUniq=   42 SFac= 1.00D+00 NAtFMM=   60 NAOKFM=F Big=F
 Integral buffers will be    131072 words long.
 Raffenetti 2 integral format.
 Two-electron integral symmetry is turned on.
 Nuclear repulsion after empirical dispersion term =     1524.9632245166 Hartrees.
 One-electron integrals computed using PRISM.
 NBasis=   410 RedAO= T EigKep=  3.63D-04  NBF=   410
 NBsUse=   410 1.00D-06 EigRej= -1.00D+00 NBFU=   410
 ExpMin= 1.61D-01 ExpMax= 4.17D+03 ExpMxC= 6.27D+02 IAcc=3 IRadAn=         5 AccDes= 0.00D+00
 Harris functional with IExCor=  402 and IRadAn=       5 diagonalized for initial guess.
 HarFok:  IExCor=  402 AccDes= 0.00D+00 IRadAn=         5 IDoV= 1 UseB2=F ITyADJ=14
 ICtDFT=  3500011 ScaDFX=  1.000000  1.000000  1.000000  1.000000
 FoFCou: FMM=F IPFlag=           0 FMFlag=      100000 FMFlg1=           0
         NFxFlg=           0 DoJE=T BraDBF=F KetDBF=T FulRan=T
         wScrn=  0.000000 ICntrl=       500 IOpCl=  0 I1Cent=   200000004 NGrid=           0
         NMat0=    1 NMatS0=      1 NMatT0=    0 NMatD0=    1 NMtDS0=    0 NMtDT0=    0
 Petite list used in FoFCou.
 Requested convergence on RMS density matrix=1.00D-08 within 128 cycles.
 Requested convergence on MAX density matrix=1.00D-06.
 Requested convergence on             energy=1.00D-06.
 No special actions if energy rises.
 Integral accuracy reduced to 1.0D-05 until final iterations.
 Initial convergence to 1.0D-05 achieved.  Increase integral accuracy.
 SCF Done:  E(RB3LYP) =  -808.763927702     A.U. after   14 cycles
            NFock= 14  Conv=0.59D-08     -V/T= 2.0096

 **********************************************************************

            Population analysis using the SCF Density.

 **********************************************************************

 Orbital symmetries:
       Occupied  (A) (A) (A) (A) (A) (A) (A) (A) (A) (A) (A) (A)
                 (A) (A) (A) (A) (A) (A) (A) (A) (A) (A) (A) (A)
                 (A) (A) (A) (A) (A) (A) (A) (A) (A) (A) (A) (A)
                 (A) (A) (A) (A) (A) (A) (A) (A) (A) (A) (A) (A)
                 (A) (A) (A) (A) (A) (A) (A) (A) (A) (A) (A) (A)
                 (A) (A) (A) (A) (A) (A) (A) (A) (A) (A) (A) (A)
       Virtual   (A) (A) (A) (A) (A) (A) (A) (A) (A) (A) (A) (A)
                 (A) (A) (A) (A) (A) (A) (A) (A) (A) (A) (A) (A)
                 (A) (A) (A) (A) (A) (A) (A) (A) (A) (A) (A) (A)
                 (A) (A) (A) (A) (A) (A) (A) (A) (A) (A) (A) (A)
                 (A) (A) (A) (A) (A) (A) (A) (A) (A) (A) (A) (A)
                 (A) (A) (A) (A) (A) (A) (A) (A) (A) (A) (A) (A)
                 (A) (A) (A) (A) (A) (A) (A) (A) (A) (A) (A) (A)
                 (A) (A) (A) (A) (A) (A) (A) (A) (A) (A) (A) (A)
                 (A) (A) (A) (A) (A) (A) (A) (A) (A) (A) (A) (A)
                 (A) (A) (A) (A) (A) (A) (A) (A) (A) (A) (A) (A)
                 (A) (A) (A) (A) (A) (A) (A) (A) (A) (A) (A) (A)
                 (A) (A) (A) (A) (A) (A) (A) (A) (A) (A) (A) (A)
                 (A) (A) (A) (A) (A) (A) (A) (A) (A) (A) (A) (A)
                 (A) (A) (A) (A) (A) (A) (A) (A) (A) (A) (A) (A)
                 (A) (A) (A) (A) (A) (A) (A) (A) (A) (A) (A) (A)
                 (A) (A) (A) (A) (A) (A) (A) (A) (A) (A) (A) (A)
                 (A) (A) (A) (A) (A) (A) (A) (A) (A) (A) (A) (A)
                 (A) (A) (A) (A) (A) (A) (A) (A) (A) (A) (A) (A)
                 (A) (A) (A) (A) (A) (A) (A) (A) (A) (A) (A) (A)
                 (A) (A) (A) (A) (A) (A) (A) (A) (A) (A) (A) (A)
                 (A) (A) (A) (A) (A) (A) (A) (A) (A) (A) (A) (A)
                 (A) (A) (A) (A) (A) (A) (A) (A) (A) (A) (A) (A)
                 (A) (A) (A) (A) (A) (A) (A) (A) (A) (A) (A) (A)
                 (A) (A) (A) (A) (A) (A) (A) (A) (A) (A) (A) (A)
                 (A) (A) (A) (A) (A) (A) (A) (A) (A) (A) (A) (A)
                 (A) (A) (A) (A) (A) (A) (A) (A) (A) (A) (A) (A)
                 (A) (A) (A) (A) (A) (A) (A) (A) (A) (A) (A) (A)
                 (A) (A) (A) (A) (A) (A) (A) (A) (A) (A) (A) (A)
                 (A) (A)
 The electronic state is 1-A.
 Alpha  occ. eigenvalues --  -14.34352 -14.31147 -10.22151 -10.21888 -10.21679
 Alpha  occ. eigenvalues --  -10.20339 -10.19697 -10.19112 -10.18786 -10.18631
 Alpha  occ. eigenvalues --  -10.18488 -10.18434 -10.18408 -10.18300 -10.18194
 Alpha  occ. eigenvalues --  -10.17716 -10.17671 -10.17615 -10.17274 -10.17192
 Alpha  occ. eigenvalues --   -0.94605  -0.89864  -0.84975  -0.83786  -0.79403
 Alpha  occ. eigenvalues --   -0.76756  -0.75013  -0.74812  -0.71990  -0.70185
 Alpha  occ. eigenvalues --   -0.67273  -0.64544  -0.64338  -0.60288  -0.59340
 Alpha  occ. eigenvalues --   -0.58928  -0.57813  -0.55995  -0.51480  -0.50265
 Alpha  occ. eigenvalues --   -0.48547  -0.47243  -0.46648  -0.46237  -0.45892
 Alpha  occ. eigenvalues --   -0.45004  -0.44178  -0.42533  -0.42494  -0.42361
 Alpha  occ. eigenvalues --   -0.40970  -0.40582  -0.40037  -0.38973  -0.38726
 Alpha  occ. eigenvalues --   -0.37842  -0.37399  -0.36539  -0.35485  -0.35051
 Alpha  occ. eigenvalues --   -0.34587  -0.34079  -0.33461  -0.32463  -0.32172
 Alpha  occ. eigenvalues --   -0.31976  -0.27098  -0.24401  -0.23812  -0.23255
 Alpha  occ. eigenvalues --   -0.21457  -0.19056
 Alpha virt. eigenvalues --   -0.00116   0.00240   0.00839   0.01673   0.08571
 Alpha virt. eigenvalues --    0.09389   0.10042   0.10486   0.11160   0.11638
 Alpha virt. eigenvalues --    0.13101   0.13975   0.14382   0.14665   0.15151
 Alpha virt. eigenvalues --    0.15544   0.16775   0.16968   0.17699   0.17787
 Alpha virt. eigenvalues --    0.18111   0.18395   0.18956   0.19359   0.19528
 Alpha virt. eigenvalues --    0.20094   0.20791   0.22115   0.22588   0.23477
 Alpha virt. eigenvalues --    0.25043   0.25281   0.26023   0.26697   0.27810
 Alpha virt. eigenvalues --    0.28136   0.29164   0.30028   0.31762   0.33080
 Alpha virt. eigenvalues --    0.34009   0.34745   0.35435   0.36671   0.38446
 Alpha virt. eigenvalues --    0.41725   0.46303   0.50136   0.50365   0.51199
 Alpha virt. eigenvalues --    0.51288   0.52223   0.52874   0.53567   0.54157
 Alpha virt. eigenvalues --    0.54498   0.55053   0.56149   0.56397   0.56898
 Alpha virt. eigenvalues --    0.57821   0.57930   0.58596   0.59142   0.59578
 Alpha virt. eigenvalues --    0.60747   0.60983   0.61446   0.61678   0.61775
 Alpha virt. eigenvalues --    0.62365   0.62616   0.62789   0.63287   0.64300
 Alpha virt. eigenvalues --    0.66136   0.66844   0.67178   0.68185   0.68611
 Alpha virt. eigenvalues --    0.70176   0.70568   0.71373   0.73515   0.74522
 Alpha virt. eigenvalues --    0.75551   0.76232   0.76842   0.78649   0.78803
 Alpha virt. eigenvalues --    0.80580   0.81033   0.81672   0.82200   0.82512
 Alpha virt. eigenvalues --    0.83093   0.83157   0.84093   0.84229   0.85129
 Alpha virt. eigenvalues --    0.85832   0.88156   0.88434   0.88705   0.89453
 Alpha virt. eigenvalues --    0.89642   0.90502   0.91579   0.91992   0.92747
 Alpha virt. eigenvalues --    0.93294   0.93981   0.95304   0.95806   0.96101
 Alpha virt. eigenvalues --    0.96955   0.98006   0.99391   1.01223   1.02536
 Alpha virt. eigenvalues --    1.03927   1.04465   1.04828   1.06424   1.07996
 Alpha virt. eigenvalues --    1.08569   1.09607   1.11472   1.12291   1.13920
 Alpha virt. eigenvalues --    1.14371   1.17386   1.18415   1.20370   1.20943
 Alpha virt. eigenvalues --    1.22882   1.23824   1.24612   1.26301   1.28473
 Alpha virt. eigenvalues --    1.30444   1.31557   1.33724   1.35662   1.36073
 Alpha virt. eigenvalues --    1.37863   1.38619   1.40304   1.41715   1.42014
 Alpha virt. eigenvalues --    1.42414   1.43205   1.43598   1.44079   1.46309
 Alpha virt. eigenvalues --    1.47773   1.50466   1.52849   1.54588   1.57945
 Alpha virt. eigenvalues --    1.59478   1.62676   1.66521   1.68140   1.69235
 Alpha virt. eigenvalues --    1.70817   1.72711   1.74126   1.76215   1.78115
 Alpha virt. eigenvalues --    1.78254   1.78658   1.79848   1.80458   1.81259
 Alpha virt. eigenvalues --    1.83393   1.84099   1.85369   1.85839   1.87182
 Alpha virt. eigenvalues --    1.87651   1.88282   1.88898   1.90420   1.91319
 Alpha virt. eigenvalues --    1.92430   1.92783   1.94096   1.94866   1.95135
 Alpha virt. eigenvalues --    1.95803   1.97069   1.97614   1.98667   1.99757
 Alpha virt. eigenvalues --    2.00600   2.01212   2.02110   2.02605   2.03050
 Alpha virt. eigenvalues --    2.04419   2.05776   2.06592   2.07340   2.08607
 Alpha virt. eigenvalues --    2.08765   2.09478   2.12208   2.13815   2.14528
 Alpha virt. eigenvalues --    2.15785   2.17077   2.18834   2.19964   2.20648
 Alpha virt. eigenvalues --    2.22122   2.23411   2.24656   2.25803   2.27848
 Alpha virt. eigenvalues --    2.28109   2.28607   2.29906   2.30325   2.32005
 Alpha virt. eigenvalues --    2.32510   2.32980   2.34050   2.35193   2.37287
 Alpha virt. eigenvalues --    2.38096   2.39576   2.40354   2.41392   2.41798
 Alpha virt. eigenvalues --    2.42217   2.43630   2.43957   2.45347   2.45885
 Alpha virt. eigenvalues --    2.47243   2.47701   2.47847   2.50088   2.51015
 Alpha virt. eigenvalues --    2.51818   2.53159   2.53810   2.56282   2.56730
 Alpha virt. eigenvalues --    2.57346   2.58522   2.59736   2.60088   2.60933
 Alpha virt. eigenvalues --    2.61569   2.62726   2.63893   2.64510   2.65809
 Alpha virt. eigenvalues --    2.66873   2.67401   2.69070   2.70743   2.71499
 Alpha virt. eigenvalues --    2.72410   2.73423   2.74329   2.75041   2.75412
 Alpha virt. eigenvalues --    2.76817   2.78358   2.80128   2.80384   2.81653
 Alpha virt. eigenvalues --    2.82841   2.83144   2.85349   2.87375   2.88160
 Alpha virt. eigenvalues --    2.90140   2.91098   2.93757   2.94007   2.96542
 Alpha virt. eigenvalues --    2.97246   2.99321   2.99761   3.05677   3.07656
 Alpha virt. eigenvalues --    3.08245   3.16635   3.20316   3.22446   3.23540
 Alpha virt. eigenvalues --    3.25856   3.26930   3.28250   3.29999   3.31147
 Alpha virt. eigenvalues --    3.31745   3.33974   3.35439   3.37178   3.37962
 Alpha virt. eigenvalues --    3.39961   3.41547   3.44662   3.45719   3.47125
 Alpha virt. eigenvalues --    3.49641   3.50524   3.52202   3.56324   3.56431
 Alpha virt. eigenvalues --    3.57748   3.86374   3.87683   4.03902   4.14254
 Alpha virt. eigenvalues --    4.14811   4.17299   4.17466   4.21604   4.23349
 Alpha virt. eigenvalues --    4.29995   4.35917   4.41666   4.45285   4.47302
 Alpha virt. eigenvalues --    4.49073   4.50027   4.56494   4.59240   4.65811
 Alpha virt. eigenvalues --    4.73529   4.84740   4.88996
          Condensed to atoms (all electrons):
               1          2          3          4          5          6
     1  C    4.788311   0.319377  -0.053621   0.005592   0.000268   0.000002
     2  N    0.319377   6.801457   0.324509  -0.053531  -0.007402  -0.000001
     3  C   -0.053621   0.324509   4.816973   0.346122  -0.032022   0.003660
     4  C    0.005592  -0.053531   0.346122   5.009145   0.369949  -0.059908
     5  C    0.000268  -0.007402  -0.032022   0.369949   4.866618   0.290570
     6  N    0.000002  -0.000001   0.003660  -0.059908   0.290570   7.223243
     7  C    0.000000  -0.000005   0.000145  -0.003733  -0.039525   0.268919
     8  C   -0.000000   0.000000   0.000008  -0.000260  -0.003664  -0.074762
     9  C   -0.000000   0.000000  -0.000000   0.000031   0.000167  -0.007227
    10  C   -0.000000   0.000000   0.000000  -0.000012   0.000016  -0.015678
    11  C   -0.000000   0.000002   0.000005  -0.000249   0.002637  -0.065648
    12  C   -0.000002   0.000216  -0.000054  -0.002600  -0.029894   0.253746
    13  C    0.000049  -0.005180   0.000178  -0.000734  -0.009671  -0.074787
    14  C    0.000002  -0.000136   0.000012   0.000101  -0.000538   0.005586
    15  C   -0.000000   0.000001  -0.000000  -0.000001   0.000041  -0.000031
    16  C    0.000000  -0.000000  -0.000000   0.000006  -0.000065   0.006922
    17  C   -0.000000  -0.000000  -0.000000   0.000014  -0.000020   0.007505
    18  C   -0.000000   0.000000  -0.000000   0.000001   0.000047  -0.000028
    19  C   -0.000000   0.000000   0.000000  -0.000080  -0.000132   0.005951
    20  C    0.000000  -0.000002   0.000032  -0.001731  -0.005113  -0.081378
    21  H    0.394105  -0.040167  -0.004145   0.000171  -0.000004   0.000000
    22  H    0.369187  -0.052430  -0.008292   0.000061  -0.000031  -0.000000
    23  H    0.386748  -0.033258   0.005458  -0.000292   0.000000  -0.000000
    24  H   -0.034925   0.338198  -0.042605  -0.006740   0.002232  -0.000210
    25  H   -0.003479  -0.045086   0.381659  -0.020052   0.004129  -0.000105
    26  H   -0.006310  -0.060878   0.362718  -0.042377  -0.008119   0.000053
    27  H   -0.000242   0.004704  -0.032915   0.360852  -0.035900   0.001023
    28  H    0.000069  -0.000570  -0.028120   0.389159  -0.041936   0.000494
    29  H   -0.000005  -0.000019   0.002146  -0.044534   0.369786  -0.040413
    30  H   -0.000243   0.000073  -0.002285  -0.060042   0.375695  -0.036382
    31  H    0.000000   0.000000  -0.000000  -0.000000  -0.000012   0.000092
    32  H   -0.000000   0.000000   0.000000   0.000010   0.001002   0.003003
    33  H    0.000000   0.000000   0.000000   0.000000  -0.000014   0.000552
    34  H    0.000000   0.000000  -0.000000  -0.000000   0.000017  -0.000015
    35  H   -0.000105   0.012546  -0.001130  -0.001299   0.002204  -0.010927
    36  H   -0.000000  -0.000002  -0.000000   0.000002   0.000005  -0.000130
    37  H   -0.000000   0.000000  -0.000000   0.000000  -0.000000   0.000005
    38  H    0.000000  -0.000000   0.000000  -0.000000   0.000001  -0.000093
    39  H    0.000000  -0.000000   0.000000  -0.000000  -0.000001  -0.000124
    40  H   -0.000000   0.000000  -0.000000   0.000000   0.000000   0.000005
    41  H   -0.000000   0.000000  -0.000000   0.000001   0.000004  -0.000141
    42  H   -0.000000   0.000001   0.000115   0.000850  -0.001694  -0.004102
               7          8          9         10         11         12
     1  C    0.000000  -0.000000  -0.000000  -0.000000  -0.000000  -0.000002
     2  N   -0.000005   0.000000   0.000000   0.000000   0.000002   0.000216
     3  C    0.000145   0.000008  -0.000000   0.000000   0.000005  -0.000054
     4  C   -0.003733  -0.000260   0.000031  -0.000012  -0.000249  -0.002600
     5  C   -0.039525  -0.003664   0.000167   0.000016   0.002637  -0.029894
     6  N    0.268919  -0.074762  -0.007227  -0.015678  -0.065648   0.253746
     7  C    4.727990   0.509762  -0.068361   0.000743  -0.004036  -0.014234
     8  C    0.509762   4.821400   0.363261  -0.040273  -0.006269  -0.005467
     9  C   -0.068361   0.363261   5.047696   0.338498  -0.032351  -0.001249
    10  C    0.000743  -0.040273   0.338498   5.053108   0.358331  -0.059604
    11  C   -0.004036  -0.006269  -0.032351   0.358331   4.819402   0.515675
    12  C   -0.014234  -0.005467  -0.001249  -0.059604   0.515675   4.706966
    13  C    0.004496  -0.000033  -0.000126   0.008082  -0.043425   0.481614
    14  C   -0.000097   0.000001   0.000007  -0.000103  -0.037722  -0.020771
    15  C    0.000030  -0.000002  -0.000174   0.007246  -0.025634  -0.044427
    16  C   -0.000535   0.000177   0.003013  -0.062594   0.508598  -0.003235
    17  C   -0.008088   0.515049  -0.058992  -0.002170   0.000040  -0.000203
    18  C   -0.043788  -0.027394   0.007428  -0.000134   0.000003   0.000019
    19  C   -0.022431  -0.035580  -0.000067   0.000027  -0.000003  -0.000155
    20  C    0.512164  -0.056170   0.008581   0.000014  -0.000035   0.005139
    21  H    0.000000  -0.000000   0.000000  -0.000000  -0.000000  -0.000000
    22  H   -0.000000   0.000000  -0.000000   0.000000   0.000000   0.000001
    23  H    0.000000   0.000000   0.000000  -0.000000  -0.000000   0.000000
    24  H    0.000012   0.000000   0.000000  -0.000000  -0.000019  -0.000129
    25  H   -0.000001  -0.000000   0.000000  -0.000000  -0.000000  -0.000011
    26  H   -0.000013   0.000000  -0.000000   0.000000   0.000000   0.000045
    27  H    0.000563   0.000117  -0.000003  -0.000000   0.000013   0.000341
    28  H    0.000013  -0.000012   0.000000   0.000000  -0.000062  -0.000439
    29  H    0.003312   0.003391   0.000074  -0.000007   0.000022   0.002776
    30  H    0.002757   0.000574  -0.000171   0.000027   0.001625   0.001246
    31  H    0.005797  -0.031292   0.364586  -0.028316   0.004021   0.000152
    32  H   -0.007886  -0.027584   0.366348  -0.040781  -0.003440   0.000173
    33  H   -0.000576  -0.003206  -0.041430   0.370824  -0.032275  -0.002325
    34  H    0.000271   0.004932  -0.033161   0.365336  -0.032907   0.004216
    35  H   -0.000003  -0.000005   0.000004  -0.000143   0.004925  -0.038325
    36  H    0.000001  -0.000000  -0.000000   0.000008   0.000992   0.003795
    37  H   -0.000000   0.000000   0.000002  -0.000179   0.004089   0.001039
    38  H    0.000001  -0.000007   0.000207  -0.011224  -0.043527   0.004578
    39  H    0.004511  -0.036350  -0.011240   0.000351  -0.000001  -0.000002
    40  H    0.001074   0.003909  -0.000180   0.000001   0.000000  -0.000000
    41  H    0.003760   0.000930   0.000008  -0.000000   0.000000   0.000001
    42  H   -0.035544   0.005651  -0.000187   0.000007   0.000014   0.000220
              13         14         15         16         17         18
     1  C    0.000049   0.000002  -0.000000   0.000000  -0.000000  -0.000000
     2  N   -0.005180  -0.000136   0.000001  -0.000000  -0.000000   0.000000
     3  C    0.000178   0.000012  -0.000000  -0.000000  -0.000000  -0.000000
     4  C   -0.000734   0.000101  -0.000001   0.000006   0.000014   0.000001
     5  C   -0.009671  -0.000538   0.000041  -0.000065  -0.000020   0.000047
     6  N   -0.074787   0.005586  -0.000031   0.006922   0.007505  -0.000028
     7  C    0.004496  -0.000097   0.000030  -0.000535  -0.008088  -0.043788
     8  C   -0.000033   0.000001  -0.000002   0.000177   0.515049  -0.027394
     9  C   -0.000126   0.000007  -0.000174   0.003013  -0.058992   0.007428
    10  C    0.008082  -0.000103   0.007246  -0.062594  -0.002170  -0.000134
    11  C   -0.043425  -0.037722  -0.025634   0.508598   0.000040   0.000003
    12  C    0.481614  -0.020771  -0.044427  -0.003235  -0.000203   0.000019
    13  C    4.996888   0.534167  -0.031861  -0.056790   0.000003  -0.000000
    14  C    0.534167   4.813285   0.543079  -0.030397  -0.000000   0.000000
    15  C   -0.031861   0.543079   4.838739   0.515072  -0.000000   0.000000
    16  C   -0.056790  -0.030397   0.515072   4.938744   0.000006  -0.000000
    17  C    0.000003  -0.000000  -0.000000   0.000006   4.941922   0.511170
    18  C   -0.000000   0.000000   0.000000  -0.000000   0.511170   4.834618
    19  C    0.000001   0.000000  -0.000000   0.000000  -0.032445   0.544736
    20  C   -0.000173  -0.000001   0.000000  -0.000007  -0.054040  -0.030682
    21  H    0.000004   0.000000  -0.000000   0.000000  -0.000000   0.000000
    22  H   -0.000014  -0.000000   0.000000  -0.000000   0.000000  -0.000000
    23  H    0.000013   0.000000  -0.000000   0.000000  -0.000000   0.000000
    24  H    0.004181   0.000356  -0.000008   0.000000  -0.000000  -0.000000
    25  H    0.000047   0.000000  -0.000000   0.000000   0.000000  -0.000000
    26  H   -0.000118  -0.000001   0.000000  -0.000000  -0.000000   0.000000
    27  H   -0.000119  -0.000004   0.000000  -0.000000  -0.000006  -0.000010
    28  H   -0.001777   0.000063   0.000002  -0.000002  -0.000001   0.000001
    29  H    0.000574   0.000009  -0.000001  -0.000001  -0.000379  -0.000029
    30  H    0.001749  -0.000013  -0.000055  -0.000068  -0.000005  -0.000001
    31  H    0.000003   0.000000   0.000003  -0.000152  -0.008061   0.000256
    32  H   -0.000140  -0.000013  -0.000012   0.000546   0.002596  -0.000293
    33  H   -0.000237   0.000054  -0.000265  -0.002051   0.001622  -0.000078
    34  H   -0.000178   0.000013   0.000395  -0.007795  -0.000066   0.000003
    35  H    0.347924  -0.039082   0.005185   0.000648  -0.000000   0.000000
    36  H   -0.036074   0.365358  -0.042204   0.004665   0.000000  -0.000000
    37  H    0.005044  -0.042825   0.364085  -0.038394   0.000000  -0.000000
    38  H    0.000433   0.005397  -0.044809   0.366654  -0.000000  -0.000000
    39  H   -0.000000   0.000000  -0.000000  -0.000000   0.362051  -0.045337
    40  H    0.000000  -0.000000  -0.000000   0.000000  -0.037411   0.364968
    41  H   -0.000000  -0.000000  -0.000000   0.000000   0.004625  -0.041736
    42  H   -0.000014   0.000001   0.000000  -0.000000   0.000655   0.004970
              19         20         21         22         23         24
     1  C   -0.000000   0.000000   0.394105   0.369187   0.386748  -0.034925
     2  N    0.000000  -0.000002  -0.040167  -0.052430  -0.033258   0.338198
     3  C    0.000000   0.000032  -0.004145  -0.008292   0.005458  -0.042605
     4  C   -0.000080  -0.001731   0.000171   0.000061  -0.000292  -0.006740
     5  C   -0.000132  -0.005113  -0.000004  -0.000031   0.000000   0.002232
     6  N    0.005951  -0.081378   0.000000  -0.000000  -0.000000  -0.000210
     7  C   -0.022431   0.512164   0.000000  -0.000000   0.000000   0.000012
     8  C   -0.035580  -0.056170  -0.000000   0.000000   0.000000   0.000000
     9  C   -0.000067   0.008581   0.000000  -0.000000   0.000000   0.000000
    10  C    0.000027   0.000014  -0.000000   0.000000  -0.000000  -0.000000
    11  C   -0.000003  -0.000035  -0.000000   0.000000  -0.000000  -0.000019
    12  C   -0.000155   0.005139  -0.000000   0.000001   0.000000  -0.000129
    13  C    0.000001  -0.000173   0.000004  -0.000014   0.000013   0.004181
    14  C    0.000000  -0.000001   0.000000  -0.000000   0.000000   0.000356
    15  C   -0.000000   0.000000  -0.000000   0.000000  -0.000000  -0.000008
    16  C    0.000000  -0.000007   0.000000  -0.000000   0.000000   0.000000
    17  C   -0.032445  -0.054040  -0.000000   0.000000  -0.000000  -0.000000
    18  C    0.544736  -0.030682   0.000000  -0.000000   0.000000  -0.000000
    19  C    4.832455   0.515640  -0.000000   0.000000  -0.000000   0.000000
    20  C    0.515640   4.949626  -0.000000   0.000000  -0.000000   0.000000
    21  H   -0.000000  -0.000000   0.604678  -0.047954  -0.028181   0.005571
    22  H    0.000000   0.000000  -0.047954   0.691321  -0.041064  -0.005095
    23  H   -0.000000  -0.000000  -0.028181  -0.041064   0.609537  -0.002881
    24  H    0.000000   0.000000   0.005571  -0.005095  -0.002881   0.493492
    25  H    0.000000   0.000008   0.006752  -0.002354   0.000093   0.006829
    26  H    0.000000  -0.000002  -0.002376   0.016119  -0.000265  -0.005912
    27  H    0.000273   0.000711  -0.000013   0.000026   0.000004   0.000018
    28  H    0.000011  -0.000489  -0.000016   0.000021  -0.000002  -0.000680
    29  H   -0.000003   0.000005   0.000001   0.000001  -0.000000  -0.000098
    30  H    0.000012   0.000219   0.000003  -0.000047   0.000036   0.009631
    31  H    0.000004  -0.000200   0.000000  -0.000000  -0.000000  -0.000000
    32  H    0.000040  -0.000165   0.000000  -0.000000   0.000000  -0.000001
    33  H   -0.000008  -0.000236   0.000000  -0.000000  -0.000000  -0.000000
    34  H   -0.000000   0.000007   0.000000  -0.000000   0.000000   0.000000
    35  H    0.000000   0.000023  -0.000029   0.000052  -0.000041  -0.003253
    36  H    0.000000  -0.000000   0.000000  -0.000000   0.000000   0.000026
    37  H   -0.000000   0.000000  -0.000000   0.000000  -0.000000  -0.000000
    38  H    0.000000  -0.000000   0.000000  -0.000000  -0.000000   0.000000
    39  H    0.004974   0.000526  -0.000000  -0.000000  -0.000000  -0.000000
    40  H   -0.041684   0.004539   0.000000  -0.000000   0.000000   0.000000
    41  H    0.364982  -0.035530   0.000000   0.000000  -0.000000  -0.000000
    42  H   -0.042012   0.357583   0.000000  -0.000000   0.000000  -0.000000
              25         26         27         28         29         30
     1  C   -0.003479  -0.006310  -0.000242   0.000069  -0.000005  -0.000243
     2  N   -0.045086  -0.060878   0.004704  -0.000570  -0.000019   0.000073
     3  C    0.381659   0.362718  -0.032915  -0.028120   0.002146  -0.002285
     4  C   -0.020052  -0.042377   0.360852   0.389159  -0.044534  -0.060042
     5  C    0.004129  -0.008119  -0.035900  -0.041936   0.369786   0.375695
     6  N   -0.000105   0.000053   0.001023   0.000494  -0.040413  -0.036382
     7  C   -0.000001  -0.000013   0.000563   0.000013   0.003312   0.002757
     8  C   -0.000000   0.000000   0.000117  -0.000012   0.003391   0.000574
     9  C    0.000000  -0.000000  -0.000003   0.000000   0.000074  -0.000171
    10  C   -0.000000   0.000000  -0.000000   0.000000  -0.000007   0.000027
    11  C   -0.000000   0.000000   0.000013  -0.000062   0.000022   0.001625
    12  C   -0.000011   0.000045   0.000341  -0.000439   0.002776   0.001246
    13  C    0.000047  -0.000118  -0.000119  -0.001777   0.000574   0.001749
    14  C    0.000000  -0.000001  -0.000004   0.000063   0.000009  -0.000013
    15  C   -0.000000   0.000000   0.000000   0.000002  -0.000001  -0.000055
    16  C    0.000000  -0.000000  -0.000000  -0.000002  -0.000001  -0.000068
    17  C    0.000000  -0.000000  -0.000006  -0.000001  -0.000379  -0.000005
    18  C   -0.000000   0.000000  -0.000010   0.000001  -0.000029  -0.000001
    19  C    0.000000   0.000000   0.000273   0.000011  -0.000003   0.000012
    20  C    0.000008  -0.000002   0.000711  -0.000489   0.000005   0.000219
    21  H    0.006752  -0.002376  -0.000013  -0.000016   0.000001   0.000003
    22  H   -0.002354   0.016119   0.000026   0.000021   0.000001  -0.000047
    23  H    0.000093  -0.000265   0.000004  -0.000002  -0.000000   0.000036
    24  H    0.006829  -0.005912   0.000018  -0.000680  -0.000098   0.009631
    25  H    0.637502  -0.056797  -0.004714  -0.004978  -0.000219   0.000133
    26  H   -0.056797   0.727818  -0.000962   0.005898   0.003043  -0.000769
    27  H   -0.004714  -0.000962   0.653028  -0.037831  -0.011358   0.006338
    28  H   -0.004978   0.005898  -0.037831   0.588183   0.004834  -0.000037
    29  H   -0.000219   0.003043  -0.011358   0.004834   0.623261  -0.029330
    30  H    0.000133  -0.000769   0.006338  -0.000037  -0.029330   0.632625
    31  H    0.000000   0.000000  -0.000000   0.000000   0.000001  -0.000002
    32  H   -0.000000   0.000000   0.000001   0.000001   0.000120   0.000059
    33  H   -0.000000   0.000000   0.000000   0.000000   0.000004   0.000003
    34  H   -0.000000  -0.000000   0.000000  -0.000000  -0.000002  -0.000003
    35  H   -0.000247   0.000334   0.000110   0.004483   0.000153  -0.002349
    36  H    0.000000  -0.000000  -0.000000  -0.000003  -0.000000  -0.000003
    37  H   -0.000000   0.000000  -0.000000   0.000000  -0.000000   0.000000
    38  H   -0.000000  -0.000000   0.000000  -0.000000  -0.000000   0.000001
    39  H   -0.000000  -0.000000   0.000000   0.000000   0.000007  -0.000000
    40  H   -0.000000   0.000000   0.000000   0.000000  -0.000000   0.000000
    41  H    0.000000  -0.000000  -0.000003  -0.000002  -0.000006  -0.000000
    42  H   -0.000013   0.000010   0.002660   0.001754   0.000597   0.000040
              31         32         33         34         35         36
     1  C    0.000000  -0.000000   0.000000   0.000000  -0.000105  -0.000000
     2  N    0.000000   0.000000   0.000000   0.000000   0.012546  -0.000002
     3  C   -0.000000   0.000000   0.000000  -0.000000  -0.001130  -0.000000
     4  C   -0.000000   0.000010   0.000000  -0.000000  -0.001299   0.000002
     5  C   -0.000012   0.001002  -0.000014   0.000017   0.002204   0.000005
     6  N    0.000092   0.003003   0.000552  -0.000015  -0.010927  -0.000130
     7  C    0.005797  -0.007886  -0.000576   0.000271  -0.000003   0.000001
     8  C   -0.031292  -0.027584  -0.003206   0.004932  -0.000005  -0.000000
     9  C    0.364586   0.366348  -0.041430  -0.033161   0.000004  -0.000000
    10  C   -0.028316  -0.040781   0.370824   0.365336  -0.000143   0.000008
    11  C    0.004021  -0.003440  -0.032275  -0.032907   0.004925   0.000992
    12  C    0.000152   0.000173  -0.002325   0.004216  -0.038325   0.003795
    13  C    0.000003  -0.000140  -0.000237  -0.000178   0.347924  -0.036074
    14  C    0.000000  -0.000013   0.000054   0.000013  -0.039082   0.365358
    15  C    0.000003  -0.000012  -0.000265   0.000395   0.005185  -0.042204
    16  C   -0.000152   0.000546  -0.002051  -0.007795   0.000648   0.004665
    17  C   -0.008061   0.002596   0.001622  -0.000066  -0.000000   0.000000
    18  C    0.000256  -0.000293  -0.000078   0.000003   0.000000  -0.000000
    19  C    0.000004   0.000040  -0.000008  -0.000000   0.000000   0.000000
    20  C   -0.000200  -0.000165  -0.000236   0.000007   0.000023  -0.000000
    21  H    0.000000   0.000000   0.000000   0.000000  -0.000029   0.000000
    22  H   -0.000000  -0.000000  -0.000000  -0.000000   0.000052  -0.000000
    23  H   -0.000000   0.000000  -0.000000   0.000000  -0.000041   0.000000
    24  H   -0.000000  -0.000001  -0.000000   0.000000  -0.003253   0.000026
    25  H    0.000000  -0.000000  -0.000000  -0.000000  -0.000247   0.000000
    26  H    0.000000   0.000000   0.000000  -0.000000   0.000334  -0.000000
    27  H   -0.000000   0.000001   0.000000   0.000000   0.000110  -0.000000
    28  H    0.000000   0.000001   0.000000  -0.000000   0.004483  -0.000003
    29  H    0.000001   0.000120   0.000004  -0.000002   0.000153  -0.000000
    30  H   -0.000002   0.000059   0.000003  -0.000003  -0.002349  -0.000003
    31  H    0.635823  -0.037361  -0.001514  -0.006878  -0.000000   0.000000
    32  H   -0.037361   0.628092   0.006080  -0.001471   0.000004   0.000000
    33  H   -0.001514   0.006080   0.618975  -0.036635   0.000002  -0.000000
    34  H   -0.006878  -0.001471  -0.036635   0.638142   0.000003  -0.000000
    35  H   -0.000000   0.000004   0.000002   0.000003   0.622584  -0.006690
    36  H    0.000000   0.000000  -0.000000  -0.000000  -0.006690   0.633787
    37  H   -0.000000   0.000000   0.000003  -0.000015  -0.000214  -0.006042
    38  H   -0.000016   0.000021   0.001050   0.005751   0.000015  -0.000236
    39  H    0.006824   0.000218   0.000132  -0.000030  -0.000000  -0.000000
    40  H   -0.000012   0.000003   0.000001  -0.000000   0.000000   0.000000
    41  H   -0.000000  -0.000000  -0.000000   0.000000  -0.000000  -0.000000
    42  H    0.000003  -0.000002   0.000002  -0.000000  -0.000002  -0.000000
              37         38         39         40         41         42
     1  C   -0.000000   0.000000   0.000000  -0.000000  -0.000000  -0.000000
     2  N    0.000000  -0.000000  -0.000000   0.000000   0.000000   0.000001
     3  C   -0.000000   0.000000   0.000000  -0.000000  -0.000000   0.000115
     4  C    0.000000  -0.000000  -0.000000   0.000000   0.000001   0.000850
     5  C   -0.000000   0.000001  -0.000001   0.000000   0.000004  -0.001694
     6  N    0.000005  -0.000093  -0.000124   0.000005  -0.000141  -0.004102
     7  C   -0.000000   0.000001   0.004511   0.001074   0.003760  -0.035544
     8  C    0.000000  -0.000007  -0.036350   0.003909   0.000930   0.005651
     9  C    0.000002   0.000207  -0.011240  -0.000180   0.000008  -0.000187
    10  C   -0.000179  -0.011224   0.000351   0.000001  -0.000000   0.000007
    11  C    0.004089  -0.043527  -0.000001   0.000000   0.000000   0.000014
    12  C    0.001039   0.004578  -0.000002  -0.000000   0.000001   0.000220
    13  C    0.005044   0.000433  -0.000000   0.000000  -0.000000  -0.000014
    14  C   -0.042825   0.005397   0.000000  -0.000000  -0.000000   0.000001
    15  C    0.364085  -0.044809  -0.000000  -0.000000  -0.000000   0.000000
    16  C   -0.038394   0.366654  -0.000000   0.000000   0.000000  -0.000000
    17  C    0.000000  -0.000000   0.362051  -0.037411   0.004625   0.000655
    18  C   -0.000000  -0.000000  -0.045337   0.364968  -0.041736   0.004970
    19  C   -0.000000   0.000000   0.004974  -0.041684   0.364982  -0.042012
    20  C    0.000000  -0.000000   0.000526   0.004539  -0.035530   0.357583
    21  H   -0.000000   0.000000  -0.000000   0.000000   0.000000   0.000000
    22  H    0.000000  -0.000000  -0.000000  -0.000000   0.000000  -0.000000
    23  H   -0.000000  -0.000000  -0.000000   0.000000  -0.000000   0.000000
    24  H   -0.000000   0.000000  -0.000000   0.000000  -0.000000  -0.000000
    25  H   -0.000000  -0.000000  -0.000000  -0.000000   0.000000  -0.000013
    26  H    0.000000  -0.000000  -0.000000   0.000000  -0.000000   0.000010
    27  H   -0.000000   0.000000   0.000000   0.000000  -0.000003   0.002660
    28  H    0.000000  -0.000000   0.000000   0.000000  -0.000002   0.001754
[...]
    32  H    0.000160   0.000020  -0.000096   0.000702   0.000306   0.000356
    33  H   -0.000725   0.000522  -0.000863  -0.004410  -0.002991   0.000425
    34  H   -0.000436   0.000144   0.001276  -0.009024   0.000735  -0.000025
    35  H    0.365598   0.009663  -0.000848   0.002504   0.000026  -0.000009
    36  H   -0.027335   0.399641  -0.034704   0.004846   0.000000  -0.000000
    37  H    0.010108  -0.043867   0.421740  -0.044335  -0.000000   0.000000
    38  H   -0.002253   0.006668  -0.034435   0.413268  -0.000010  -0.000000
    39  H   -0.000003   0.000000  -0.000001   0.000009   0.402123  -0.035370
    40  H    0.000000  -0.000000  -0.000000  -0.000000  -0.040410   0.416428
    41  H   -0.000002  -0.000000   0.000000   0.000000   0.004041  -0.033314
    42  H    0.000743  -0.000025   0.000004  -0.000015   0.001030   0.000389
              19         20         21         22         23         24
     1  C    0.000000   0.000008   0.417485   0.418904   0.407254  -0.038137
     2  N    0.000002  -0.000016  -0.043106  -0.053095  -0.033643   0.354035
     3  C    0.000078   0.002819  -0.011389  -0.007109   0.010849  -0.054104
     4  C    0.000185  -0.016553   0.000978  -0.001735  -0.000350  -0.007150
     5  C   -0.000106   0.022647  -0.000040   0.000509  -0.000055   0.011318
     6  N    0.008721  -0.069612   0.000001  -0.000013   0.000001  -0.000603
     7  C   -0.002885   0.363927   0.000003  -0.000009   0.000001   0.000523
     8  C   -0.091972   0.045962  -0.000000   0.000000  -0.000000  -0.000007
     9  C   -0.006269   0.017384   0.000000  -0.000000   0.000000   0.000006
    10  C    0.000011   0.002142   0.000000  -0.000000   0.000000  -0.000000
    11  C    0.000271   0.002314  -0.000000  -0.000001  -0.000001  -0.000374
    12  C    0.000190  -0.003747   0.000007  -0.000005  -0.000003   0.000688
    13  C   -0.000373   0.006165   0.000168  -0.000312   0.000289   0.006255
    14  C    0.000004  -0.000501   0.000002  -0.000001   0.000032   0.001400
    15  C    0.000006   0.000128  -0.000001   0.000001  -0.000002  -0.000228
    16  C    0.000013  -0.000904   0.000000  -0.000000   0.000000   0.000067
    17  C    0.006028  -0.139183  -0.000000   0.000000  -0.000000  -0.000002
    18  C    0.490874   0.008795   0.000000  -0.000000   0.000000   0.000001
    19  C    4.970024   0.426851  -0.000000   0.000000  -0.000000  -0.000005
    20  C    0.426851   5.182232  -0.000001   0.000001  -0.000000  -0.000032
    21  H   -0.000000  -0.000001   0.549112  -0.052513  -0.017070   0.010447
    22  H    0.000000   0.000001  -0.052513   0.603756  -0.034589  -0.012153
    23  H   -0.000000  -0.000000  -0.017070  -0.034589   0.532360  -0.006852
    24  H   -0.000005  -0.000032   0.010447  -0.012153  -0.006852   0.535193
    25  H   -0.000023  -0.000089   0.006735  -0.005251   0.000376   0.010096
    26  H    0.000029  -0.000137  -0.003371   0.016114  -0.000445  -0.011667
    27  H    0.001705  -0.000880  -0.000081   0.000050   0.000017  -0.000656
    28  H    0.000091  -0.005485  -0.000180   0.000265  -0.000033  -0.000754
    29  H    0.000865  -0.007239  -0.000001   0.000028  -0.000002   0.000651
    30  H    0.000063   0.000019  -0.000038  -0.000291   0.000122  -0.000980
    31  H    0.000242  -0.000782   0.000000   0.000000  -0.000000   0.000000
    32  H   -0.000238   0.001105   0.000000  -0.000000  -0.000000  -0.000005
    33  H   -0.000011  -0.000806  -0.000000  -0.000000  -0.000000  -0.000000
    34  H   -0.000009   0.000066  -0.000000   0.000000   0.000000   0.000000
    35  H    0.000043   0.000403  -0.000507   0.000689  -0.000601  -0.014840
    36  H   -0.000000  -0.000004  -0.000002   0.000004   0.000008   0.000047
    37  H   -0.000000   0.000000  -0.000000   0.000000  -0.000000  -0.000001
    38  H    0.000000   0.000003   0.000000   0.000000  -0.000000   0.000000
    39  H    0.005711  -0.002278  -0.000000   0.000000  -0.000000  -0.000000
    40  H   -0.039517   0.007875   0.000000  -0.000000   0.000000   0.000000
    41  H    0.402966  -0.030041  -0.000000   0.000000   0.000000  -0.000000
    42  H   -0.011591   0.378878   0.000001  -0.000001  -0.000000   0.000022
              25         26         27         28         29         30
     1  C   -0.006227  -0.007621  -0.000525  -0.000163   0.000050   0.000931
     2  N   -0.038818  -0.066175   0.005013   0.007567   0.000587  -0.005859
     3  C    0.414607   0.439174  -0.018824  -0.024662   0.003801   0.013281
     4  C   -0.025300  -0.048212   0.403282   0.437940  -0.060243  -0.092749
     5  C    0.010570  -0.014701  -0.035785  -0.083015   0.388358   0.430338
     6  N   -0.000466   0.000446   0.000954   0.003610  -0.039757  -0.042605
     7  C    0.000101  -0.000343   0.006173   0.004788   0.003613   0.016809
     8  C    0.000001   0.000010  -0.000665   0.000354   0.008055   0.000217
     9  C    0.000002  -0.000013  -0.000034  -0.000101  -0.000463   0.000291
    10  C   -0.000000  -0.000001  -0.000016   0.000041   0.000481  -0.000096
    11  C   -0.000006  -0.000020  -0.000095   0.000786   0.001971   0.005426
    12  C   -0.000121   0.000341  -0.000993   0.003043   0.008937  -0.007595
    13  C    0.000533  -0.001027  -0.000124  -0.012584   0.002783  -0.018226
    14  C    0.000001   0.000032   0.000062   0.000652   0.000194  -0.000297
    15  C   -0.000001   0.000000  -0.000009   0.000045  -0.000038  -0.000361
    16  C    0.000000   0.000001   0.000016  -0.000009   0.000049   0.000242
    17  C   -0.000001   0.000006   0.000046   0.000002  -0.000018  -0.000131
    18  C    0.000001  -0.000003  -0.000241   0.000007  -0.000258  -0.000012
    19  C   -0.000023   0.000029   0.001705   0.000091   0.000865   0.000063
    20  C   -0.000089  -0.000137  -0.000880  -0.005485  -0.007239   0.000019
    21  H    0.006735  -0.003371  -0.000081  -0.000180  -0.000001  -0.000038
    22  H   -0.005251   0.016114   0.000050   0.000265   0.000028  -0.000291
    23  H    0.000376  -0.000445   0.000017  -0.000033  -0.000002   0.000122
    24  H    0.010096  -0.011667  -0.000656  -0.000754   0.000651  -0.000980
    25  H    0.557463  -0.050226  -0.007902  -0.007627  -0.000436  -0.000235
    26  H   -0.050226   0.600485  -0.000641   0.008563   0.002631  -0.002154
    27  H   -0.007902  -0.000641   0.533745  -0.020189  -0.005990   0.005456
    28  H   -0.007627   0.008563  -0.020189   0.483480   0.004999   0.004343
    29  H   -0.000436   0.002631  -0.005990   0.004999   0.507675  -0.001576
    30  H   -0.000235  -0.002154   0.005456   0.004343  -0.001576   0.515565
    31  H    0.000000  -0.000000  -0.000001  -0.000001  -0.000092  -0.000037
    32  H    0.000000   0.000001   0.000009  -0.000005  -0.000283   0.000008
    33  H   -0.000000   0.000000   0.000001   0.000002   0.000028   0.000032
    34  H    0.000000  -0.000000   0.000000  -0.000001  -0.000024  -0.000030
    35  H   -0.001307   0.002279   0.000698   0.004501   0.000103  -0.008170
    36  H   -0.000002   0.000005   0.000000   0.000041  -0.000001  -0.000090
    37  H    0.000000  -0.000000  -0.000000   0.000001  -0.000000   0.000002
    38  H   -0.000000   0.000000   0.000000  -0.000000   0.000000   0.000003
    39  H   -0.000000   0.000000   0.000000   0.000000   0.000026   0.000001
    40  H    0.000000  -0.000000   0.000001   0.000000  -0.000002   0.000000
    41  H   -0.000000  -0.000000   0.000091  -0.000016  -0.000033  -0.000001
    42  H    0.000062  -0.000089  -0.010402  -0.000194   0.001299  -0.000265
              31         32         33         34         35         36
     1  C   -0.000000  -0.000000   0.000000  -0.000000  -0.000396  -0.000033
     2  N    0.000000  -0.000001  -0.000000   0.000000   0.025912   0.000681
     3  C   -0.000001   0.000000   0.000001  -0.000000  -0.006076  -0.000039
     4  C    0.000013   0.000258   0.000007  -0.000000   0.003670   0.000001
     5  C    0.000109   0.000094  -0.000493   0.000290   0.004557   0.000238
     6  N    0.001811   0.003497  -0.002139   0.000980  -0.006251  -0.000282
     7  C    0.013234  -0.014703   0.002523  -0.000805  -0.003560   0.000012
     8  C   -0.058365  -0.061691  -0.010897   0.011715  -0.000136  -0.000002
     9  C    0.443758   0.461801  -0.035651  -0.047102  -0.000185  -0.000005
    10  C   -0.060408  -0.052665   0.435518   0.434252  -0.000143   0.000046
    11  C    0.009765  -0.011532  -0.055822  -0.067273  -0.007097   0.000048
    12  C   -0.000625   0.003407  -0.000026   0.012817  -0.037313   0.007118
    13  C   -0.000045   0.000160  -0.000725  -0.000436   0.365598  -0.027335
    14  C    0.000009   0.000020   0.000522   0.000144   0.009663   0.399641
    15  C   -0.000047  -0.000096  -0.000863   0.001276  -0.000848  -0.034704
    16  C   -0.000239   0.000702  -0.004410  -0.009024   0.002504   0.004846
    17  C   -0.001679   0.000306  -0.002991   0.000735   0.000026   0.000000
    18  C    0.000109   0.000356   0.000425  -0.000025  -0.000009  -0.000000
    19  C    0.000242  -0.000238  -0.000011  -0.000009   0.000043  -0.000000
    20  C   -0.000782   0.001105  -0.000806   0.000066   0.000403  -0.000004
    21  H    0.000000   0.000000  -0.000000  -0.000000  -0.000507  -0.000002
    22  H    0.000000  -0.000000  -0.000000   0.000000   0.000689   0.000004
    23  H   -0.000000  -0.000000  -0.000000   0.000000  -0.000601   0.000008
    24  H    0.000000  -0.000005  -0.000000   0.000000  -0.014840   0.000047
    25  H    0.000000   0.000000  -0.000000   0.000000  -0.001307  -0.000002
    26  H   -0.000000   0.000001   0.000000  -0.000000   0.002279   0.000005
    27  H   -0.000001   0.000009   0.000001   0.000000   0.000698   0.000000
    28  H   -0.000001  -0.000005   0.000002  -0.000001   0.004501   0.000041
    29  H   -0.000092  -0.000283   0.000028  -0.000024   0.000103  -0.000001
    30  H   -0.000037   0.000008   0.000032  -0.000030  -0.008170  -0.000090
    31  H    0.522614  -0.015739   0.001029  -0.008130   0.000002   0.000000
    32  H   -0.015739   0.501474   0.005238   0.002002   0.000026   0.000001
    33  H    0.001029   0.005238   0.526366  -0.029415   0.000016  -0.000001
    34  H   -0.008130   0.002002  -0.029415   0.547915   0.000005  -0.000001
    35  H    0.000002   0.000026   0.000016   0.000005   0.469496  -0.001366
    36  H    0.000000   0.000001  -0.000001  -0.000001  -0.001366   0.515366
    37  H   -0.000001  -0.000002  -0.000014  -0.000055  -0.000234  -0.003996
    38  H   -0.000032   0.000015   0.000403   0.001438   0.000058  -0.000352
    39  H    0.002476  -0.000071   0.000507  -0.000111   0.000000  -0.000000
    40  H   -0.000050   0.000013   0.000009  -0.000001  -0.000000   0.000000
    41  H    0.000000  -0.000003  -0.000004   0.000000   0.000000  -0.000000
    42  H    0.000005  -0.000013  -0.000006  -0.000002  -0.000078  -0.000001
              37         38         39         40         41         42
     1  C    0.000000  -0.000000   0.000000  -0.000000  -0.000000   0.000004
     2  N   -0.000001   0.000000   0.000000   0.000000   0.000000  -0.000102
     3  C    0.000000  -0.000000   0.000000  -0.000000  -0.000004   0.001815
     4  C    0.000001  -0.000004  -0.000001  -0.000000   0.000156  -0.004749
     5  C   -0.000014   0.000051  -0.000011  -0.000008   0.000104  -0.001349
     6  N    0.000025  -0.000273  -0.000377   0.000015  -0.000263   0.002984
     7  C   -0.000007   0.000112   0.015733  -0.002004   0.006928  -0.018772
     8  C   -0.000003  -0.000142  -0.041012   0.008552   0.000541   0.002611
     9  C    0.000030   0.000856  -0.004734  -0.000128   0.000086  -0.000378
    10  C   -0.000202  -0.006696  -0.000648   0.000040  -0.000016   0.000164
    11  C    0.009255  -0.057292   0.000104   0.000000   0.000004   0.000172
    12  C   -0.002390   0.017452  -0.000026  -0.000010   0.000013  -0.000177
    13  C    0.010108  -0.002253  -0.000003   0.000000  -0.000002   0.000743
    14  C   -0.043867   0.006668   0.000000  -0.000000  -0.000000  -0.000025
    15  C    0.421740  -0.034435  -0.000001  -0.000000   0.000000   0.000004
    16  C   -0.044335   0.413268   0.000009  -0.000000   0.000000  -0.000015
    17  C   -0.000000  -0.000010   0.402123  -0.040410   0.004041   0.001030
    18  C    0.000000  -0.000000  -0.035370   0.416428  -0.033314   0.000389
    19  C   -0.000000   0.000000   0.005711  -0.039517   0.402966  -0.011591
    20  C    0.000000   0.000003  -0.002278   0.007875  -0.030041   0.378878
    21  H   -0.000000   0.000000  -0.000000   0.000000  -0.000000   0.000001
    22  H    0.000000   0.000000   0.000000  -0.000000   0.000000  -0.000001
    23  H   -0.000000  -0.000000  -0.000000   0.000000   0.000000  -0.000000
    24  H   -0.000001   0.000000  -0.000000   0.000000  -0.000000   0.000022
    25  H    0.000000  -0.000000  -0.000000   0.000000  -0.000000   0.000062
    26  H   -0.000000   0.000000   0.000000  -0.000000  -0.000000  -0.000089
    27  H   -0.000000   0.000000   0.000000   0.000001   0.000091  -0.010402
    28  H    0.000001  -0.000000   0.000000   0.000000  -0.000016  -0.000194
    29  H   -0.000000   0.000000   0.000026  -0.000002  -0.000033   0.001299
    30  H    0.000002   0.000003   0.000001   0.000000  -0.000001  -0.000265
    31  H   -0.000001  -0.000032   0.002476  -0.000050   0.000000   0.000005
    32  H   -0.000002   0.000015  -0.000071   0.000013  -0.000003  -0.000013
    33  H   -0.000014   0.000403   0.000507   0.000009  -0.000004  -0.000006
    34  H   -0.000055   0.001438  -0.000111  -0.000001   0.000000  -0.000002
    35  H   -0.000234   0.000058   0.000000  -0.000000   0.000000  -0.000078
    36  H   -0.003996  -0.000352  -0.000000   0.000000  -0.000000  -0.000001
    37  H    0.522005  -0.004699  -0.000000   0.000000   0.000000   0.000000
    38  H   -0.004699   0.531015   0.000000  -0.000000  -0.000000   0.000000
    39  H   -0.000000   0.000000   0.524902  -0.003961  -0.000345   0.000059
    40  H    0.000000  -0.000000  -0.003961   0.516487  -0.004002  -0.000210
    41  H    0.000000  -0.000000  -0.000345  -0.004002   0.515140  -0.003121
    42  H    0.000000   0.000000   0.000059  -0.000210  -0.003121   0.469943
 Mulliken charges:
               1
     1  C   -0.334545
     2  N   -0.373081
     3  C   -0.198079
     4  C   -0.290403
     5  C   -0.365134
     6  N   -0.169045
     7  C    0.066121
     8  C    0.084063
     9  C   -0.393572
    10  C   -0.311888
    11  C    0.062343
    12  C    0.181316
    13  C   -0.241281
    14  C   -0.197083
    15  C   -0.166446
    16  C   -0.187767
    17  C   -0.144489
    18  C   -0.151842
    19  C   -0.161975
    20  C   -0.191433
    21  H    0.143359
    22  H    0.126758
    23  H    0.142336
    24  H    0.217803
    25  H    0.143491
    26  H    0.136727
    27  H    0.146732
    28  H    0.189898
    29  H    0.179270
    30  H    0.188648
    31  H    0.151094
    32  H    0.176551
    33  H    0.171646
    34  H    0.148807
    35  H    0.198864
    36  H    0.140114
    37  H    0.136652
    38  H    0.134846
    39  H    0.137294
    40  H    0.140882
    41  H    0.141095
    42  H    0.191352
 Sum of Mulliken charges =  -0.00000
 Mulliken charges with hydrogens summed into heavy atoms:
               1
     1  C    0.077909
     2  N   -0.155279
     3  C    0.082140
     4  C    0.046227
     5  C    0.002784
     6  N   -0.169045
     7  C    0.066121
     8  C    0.084063
     9  C   -0.065928
    10  C    0.008565
    11  C    0.062343
    12  C    0.181316
    13  C   -0.042416
    14  C   -0.056969
    15  C   -0.029795
    16  C   -0.052921
    17  C   -0.007196
    18  C   -0.010960
    19  C   -0.020879
    20  C   -0.000081
 Electronic spatial extent (au):  <R**2>=           6199.1102
 Charge=              0.0000 electrons
 Dipole moment (field-independent basis, Debye):
    X=              0.1949    Y=             -1.0544    Z=              1.3086  Tot=              1.6918
 Quadrupole moment (field-independent basis, Debye-Ang):
   XX=           -110.9492   YY=           -116.2781   ZZ=           -123.3428
   XY=             -2.8979   XZ=              0.3372   YZ=              3.2042
 Traceless Quadrupole moment (field-independent basis, Debye-Ang):
   XX=              5.9075   YY=              0.5786   ZZ=             -6.4861
   XY=             -2.8979   XZ=              0.3372   YZ=              3.2042
 Octapole moment (field-independent basis, Debye-Ang**2):
  XXX=              7.3432  YYY=              5.4525  ZZZ=              9.4921  XYY=              1.8069
  XXY=             -6.8516  XXZ=             18.0970  XZZ=              6.1914  YZZ=            -10.2145
  YYZ=            -16.8872  XYZ=            -11.9033
 Hexadecapole moment (field-independent basis, Debye-Ang**3):
 XXXX=          -4754.7958 YYYY=          -2955.3650 ZZZZ=           -542.1909 XXXY=             23.1610
 XXXZ=             -0.9047 YYYX=            -15.0150 YYYZ=             19.9684 ZZZX=             -4.0105
 ZZZY=             22.1933 XXYY=          -1283.5764 XXZZ=           -942.0316 YYZZ=           -608.4701
 XXYZ=             28.9784 YYXZ=             -0.1086 ZZXY=             -8.1820
 N-N= 1.526816566605D+03 E-N=-4.929247000776D+03  KE= 8.040956889115D+02
 Unable to Open any file for archive entry.
 1\1\GINC-NOTCH170\SP\RM062X\def2TZVP\C18H22N2\U6032257\23-Sep-2022\0\\
 # M062X/def2tzvp int=(grid=ultrafine) nmr=giao guess=read geom=check\\
 SecN5.xyz\\0,1\C,0,-1.9223024694,-3.388447021,4.1657931919\N,0,-1.2251
 264132,-2.6799928652,3.0995229972\C,0,0.2190363715,-2.610112841,3.3122
 400186\C,0,0.9144094727,-1.7847083616,2.2280965232\C,0,0.9354034501,-2
 .4910535776,0.8522103632\N,0,0.9837247049,-1.6506943978,-0.344456341\C
 ,0,2.2610750748,-1.1663631177,-0.7434549539\C,0,2.7691188707,-1.486054
 0666,-2.0137137541\C,0,1.8829044169,-2.2106750512,-2.9831699156\C,0,0.
 7145211678,-1.3080638135,-3.4068660047\C,0,-0.370764209,-1.0887964928,
 -2.3671334878\C,0,-0.2285659412,-1.2712892746,-0.9686693114\C,0,-1.370
 0038877,-1.1085607205,-0.1543899597\C,0,-2.6069545657,-0.7615636497,-0
 .6838117329\C,0,-2.7435978506,-0.5462433433,-2.0527420714\C,0,-1.62731
 28979,-0.7156530532,-2.8635454827\C,0,4.048809907,-1.0516345525,-2.366
 3376357\C,0,4.838714212,-0.3305035633,-1.4718646558\C,0,4.3330756806,-
 0.0149036924,-0.2120577369\C,0,3.048291336,-0.4216171677,0.1449018692\
 H,0,-1.8328214816,-2.8207394359,5.0986307024\H,0,-1.5399143475,-4.4069
 611713,4.360093345\H,0,-2.9859034498,-3.4633874045,3.9223214013\H,0,-1
 .4177047603,-3.1466028242,2.217365538\H,0,0.3814210151,-2.1287889787,4
 .2843065604\H,0,0.6909486468,-3.6106553572,3.3840987466\H,0,1.94220932
 2,-1.5852608529,2.5470890879\H,0,0.4093812789,-0.817882353,2.147163843
 4\H,0,1.7990852973,-3.1648553696,0.8150308086\H,0,0.0496004824,-3.1249
 214701,0.7448851375\H,0,2.4572551502,-2.4980023741,-3.8693017263\H,0,1
 .4904384249,-3.1292081587,-2.5313658176\H,0,1.1310123223,-0.3419719506
 ,-3.7228020675\H,0,0.234927067,-1.734674559,-4.2951580504\H,0,-1.29288
 15512,-1.2367126544,0.9174055741\H,0,-3.4556080265,-0.6453165236,-0.01
 62279907\H,0,-3.6995579833,-0.2666919635,-2.4836067313\H,0,-1.72683937
 62,-0.5817316962,-3.9381700844\H,0,4.4320460761,-1.2961626342,-3.35356
 96714\H,0,5.8360818516,-0.0126090239,-1.759337018\H,0,4.928528382,0.56
 16727862,0.4892552935\H,0,2.6420392294,-0.1405054075,1.1080411992\\Ver
 sion=ES64L-G16RevC.01\State=1-A\HF=-808.591012\RMSD=4.872e-09\Dipole=0
 .3070361,-0.5579493,0.193518\Quadrupole=-0.3839618,-4.489264,4.8732258
 ,2.6801214,-1.060942,-1.1880474\PG=C01 [X(C18H22N2)]\\@
 The archive entry for this job was punched.


 NO SCIENCE HAS EVER MADE MORE RAPID PROGRESS IN A
 SHORTER TIME THAN CHEMISTRY.
   -- MARTIN HEINRICH KLOPROTH, 1791
 (FIRST PROFESSOR OF CHEMISTRY AT THE UNIVERSITY OF BERLIN)
 Job cpu time:       0 days  3 hours  5 minutes 16.2 seconds.
 Elapsed time:       0 days  0 hours  3 minutes 26.0 seconds.
 File lengths (MBytes):  RWF=    318 Int=      0 D2E=      0 Chk=     53 Scr=      1
 Normal termination of Gaussian 16 at Fri Sep 23 16:33:27 2022.
