 Entering Gaussian System, Link 0=/uufs/chpc.utah.edu/sys/installdir/gaussian16/C01/AVX2/g16/g16
 Input=SecN5_clust-10.com
 Output=SecN5_clust-10.log
 Initial command:
 /uufs/chpc.utah.edu/sys/installdir/gaussian16/C01/AVX2/g16/l1.exe "/scratch/local/u6032257/5771819/notchpeak.peaks/Gau-715902.inp" -scrdir="/scratch/local/u6032257/5771819/notchpeak.peaks/"
 Entering Link 1 = /uufs/chpc.utah.edu/sys/installdir/gaussian16/C01/AVX2/g16/l1.exe PID=    715904.
  
 Copyright (c) 1988-2019, Gaussian, Inc.  All Rights Reserved.
  
 This is part of the Gaussian(R) 16 program.  It is based on
 the Gaussian(R) 09 system (copyright 2009, Gaussian, Inc.),
 the Gaussian(R) 03 system (copyright 2003, Gaussian, Inc.),
 the Gaussian(R) 98 system (copyright 1998, Gaussian, Inc.),
 the Gaussian(R) 94 system (copyright 1995, Gaussian, Inc.),
 the Gaussian 92(TM) system (copyright 1992, Gaussian, Inc.),
 the Gaussian 90(TM) system (copyright 1990, Gaussian, Inc.),
 the Gaussian 88(TM) system (copyright 1988, Gaussian, Inc.),
 the Gaussian 86(TM) system (copyright 1986, Carnegie Mellon
 University), and the Gaussian 82(TM) system (copyright 1983,
 Carnegie Mellon University). Gaussian is a federally registered
 trademark of Gaussian, Inc.
  
 This software contains proprietary and confidential information,
 including trade secrets, belonging to Gaussian, Inc.
  
 This software is provided under written license and may be
 used, copied, transmitted, or stored only in accord with that
 written license.
  
 The following legend is applicable only to US Government
 contracts under FAR:
  
                    RESTRICTED RIGHTS LEGEND
  
 Use, reproduction and disclosure by the US Government is
 subject to restrictions as set forth in subparagraphs (a)
 and (c) of the Commercial Computer Software - Restricted
 Rights clause in FAR 52.227-19.
  
 Gaussian, Inc.
 340 Quinnipiac St., Bldg. 40, Wallingford CT 06492
  
  
 ---------------------------------------------------------------
 Warning -- This program may not be used in any manner that
 competes with the business of Gaussian, Inc. or will provide
 assistance to any competitor of Gaussian, Inc.  The licensee
 of this program is prohibited from giving any competitor of
 Gaussian, Inc. access to this program.  By using this program,
 the user acknowledges that Gaussian, Inc. is engaged in the
 business of creating and licensing software in the field of
 computational chemistry and represents and warrants to the
 licensee that it is not a competitor of Gaussian, Inc. and that
 it will not use this program in any manner prohibited above.
 ---------------------------------------------------------------
  

 Cite this work as:
 Gaussian 16, Revision C.01,
 M. J. Frisch, G. W. Trucks, H. B. Schlegel, G. E. Scuseria, 
 M. A. Robb, J. R. Cheeseman, G. Scalmani, V. Barone, 
 G. A. Petersson, H. Nakatsuji, X. Li, M. Caricato, A. V. Marenich, 
 J. Bloino, B. G. Janesko, R. Gomperts, B. Mennucci, H. P. Hratchian, 
 J. V. Ortiz, A. F. Izmaylov, J. L. Sonnenberg, D. Williams-Young, 
 F. Ding, F. Lipparini, F. Egidi, J. Goings, B. Peng, A. Petrone, 
 T. Henderson, D. Ranasinghe, V. G. Zakrzewski, J. Gao, N. Rega, 
 G. Zheng, W. Liang, M. Hada, M. Ehara, K. Toyota, R. Fukuda, 
 J. Hasegawa, M. Ishida, T. Nakajima, Y. Honda, O. Kitao, H. Nakai, 
 T. Vreven, K. Throssell, J. A. Montgomery, Jr., J. E. Peralta, 
 F. Ogliaro, M. J. Bearpark, J. J. Heyd, E. N. Brothers, K. N. Kudin, 
 V. N. Staroverov, T. A. Keith, R. Kobayashi, J. Normand, 
 K. Raghavachari, A. P. Rendell, J. C. Burant, S. S. Iyengar, 
 J. Tomasi, M. Cossi, J. M. Millam, M. Klene, C. Adamo, R. Cammi, 
 J. W. Ochterski, R. L. Martin, K. Morokuma, O. Farkas, 
 J. B. Foresman, and D. J. Fox, Gaussian, Inc., Wallingford CT, 2019.
 
 ******************************************
 Gaussian 16:  ES64L-G16RevC.01  3-Jul-2019
                23-Sep-2022 
 ******************************************
 %NProcShared=40
 Will use up to   40 processors via shared memory.
 %mem=16GB
 %chk=SecN5_clust-10.chk
 ----------------------------------------------------------------------
 # B3LYP/6-31G(d,p) empiricaldispersion=GD3BJ int=(grid=ultrafine) opt 
 freq=noraman
 ----------------------------------------------------------------------
 1/18=20,19=15,26=4,38=1/1,3;
 2/9=110,12=2,17=6,18=5,40=1/2;
 3/5=1,6=6,7=101,11=2,25=1,30=1,71=1,74=-5,75=-5,124=41/1,2,3;
 4//1;
 5/5=2,38=5/2;
 6/7=2,8=2,9=2,10=2,28=1/1;
 7//1,2,3,16;
 1/18=20,19=15,26=4/3(2);
 2/9=110/2;
 99//99;
 2/9=110/2;
 3/5=1,6=6,7=101,11=2,25=1,30=1,71=1,74=-5,75=-5,124=41/1,2,3;
 4/5=5,16=3,69=1/1;
 5/5=2,38=5/2;
 7//1,2,3,16;
 1/18=20,19=15,26=4/3(-5);
 2/9=110/2;
 6/7=2,8=2,9=2,10=2,19=2,28=1/1;
 99/9=1/99;
 ---------
 SecN5.xyz
 ---------
 Symbolic Z-matrix:
 Charge =  0 Multiplicity = 1
 C                    -1.9875   -1.6982    2.9928 
 N                    -1.0528   -2.6886    3.5148 
 C                     0.3564   -2.3387    3.3567 
 C                     0.8661   -2.5204    1.9144 
 C                     0.7391   -1.2793    1.0024 
 N                     0.911    -1.6101   -0.4294 
 C                     2.23     -1.3791   -0.8594 
 C                     2.631    -0.2125   -1.541 
 C                     1.5872    0.7781   -2.0125 
 C                     0.5776    0.1387   -2.9682 
 C                    -0.4874   -0.7673   -2.3565 
 C                    -0.2876   -1.5377   -1.1779 
 C                    -1.3618   -2.3262   -0.7295 
 C                    -2.5838   -2.3718   -1.3926 
 C                    -2.7631   -1.6245   -2.5468 
 C                    -1.7211   -0.8367   -3.0219 
 C                     3.9862   -0.0145   -1.8389 
 C                     4.9459   -0.9522   -1.4671 
 C                     4.5582   -2.1062   -0.7957 
 C                     3.2132   -2.3078   -0.494 
 H                    -3.0058   -1.9585    3.2855 
 H                    -1.7768   -0.6977    3.375 
 H                    -1.9771   -1.6688    1.9045 
 H                    -1.2715   -2.9561    4.4671 
 H                     0.5622   -1.3335    3.7318 
 H                     0.9267   -3.012     3.9998 
 H                     1.9367   -2.6826    2.0328 
 H                     0.5076   -3.4385    1.4487 
 H                    -0.1939   -0.7475    1.1901 
 H                     1.4934   -0.5504    1.3107 
 H                     1.0925    1.2309   -1.1516 
 H                     2.0819    1.6054   -2.5233 
 H                     0.0757    0.943    -3.5084 
 H                     1.1061   -0.4302   -3.7351 
 H                    -1.241    -2.9376    0.1509 
 H                    -3.3806   -2.9951   -1.0142 
 H                    -3.705    -1.658    -3.0756 
 H                    -1.8799   -0.2651   -3.9251 
 H                     4.2997    0.8706   -2.3735 
 H                     5.9869   -0.7871   -1.7061 
 H                     5.2937   -2.8422   -0.5062 
 H                     2.9187   -3.2048    0.0278 
 

 GradGradGradGradGradGradGradGradGradGradGradGradGradGradGradGradGradGrad
 Berny optimization.
 Initialization pass.
                           ----------------------------
                           !    Initial Parameters    !
                           ! (Angstroms and Degrees)  !
 --------------------------                            --------------------------
 ! Name  Definition              Value          Derivative Info.                !
 --------------------------------------------------------------------------------
 ! R1    R(1,2)                  1.4584         estimate D2E/DX2                !
 ! R2    R(1,21)                 1.091          estimate D2E/DX2                !
 ! R3    R(1,22)                 1.0915         estimate D2E/DX2                !
 ! R4    R(1,23)                 1.0887         estimate D2E/DX2                !
 ! R5    R(2,3)                  1.4606         estimate D2E/DX2                !
 ! R6    R(2,24)                 1.013          estimate D2E/DX2                !
 ! R7    R(3,4)                  1.5405         estimate D2E/DX2                !
 ! R8    R(3,25)                 1.0925         estimate D2E/DX2                !
 ! R9    R(3,26)                 1.0919         estimate D2E/DX2                !
 ! R10   R(4,5)                  1.5454         estimate D2E/DX2                !
 ! R11   R(4,27)                 1.0893         estimate D2E/DX2                !
 ! R12   R(4,28)                 1.0901         estimate D2E/DX2                !
 ! R13   R(5,6)                  1.4795         estimate D2E/DX2                !
 ! R14   R(5,29)                 1.0902         estimate D2E/DX2                !
 ! R15   R(5,30)                 1.0933         estimate D2E/DX2                !
 ! R16   R(6,7)                  1.4064         estimate D2E/DX2                !
 ! R17   R(6,12)                 1.415          estimate D2E/DX2                !
 ! R18   R(7,8)                  1.4094         estimate D2E/DX2                !
 ! R19   R(7,20)                 1.401          estimate D2E/DX2                !
 ! R20   R(8,9)                  1.5143         estimate D2E/DX2                !
 ! R21   R(8,17)                 1.4016         estimate D2E/DX2                !
 ! R22   R(9,10)                 1.5302         estimate D2E/DX2                !
 ! R23   R(9,31)                 1.0913         estimate D2E/DX2                !
 ! R24   R(9,32)                 1.0909         estimate D2E/DX2                !
 ! R25   R(10,11)                1.5262         estimate D2E/DX2                !
 ! R26   R(10,33)                1.0912         estimate D2E/DX2                !
 ! R27   R(10,34)                1.0914         estimate D2E/DX2                !
 ! R28   R(11,12)                1.4222         estimate D2E/DX2                !
 ! R29   R(11,16)                1.4034         estimate D2E/DX2                !
 ! R30   R(12,13)                1.406          estimate D2E/DX2                !
 ! R31   R(13,14)                1.3911         estimate D2E/DX2                !
 ! R32   R(13,35)                1.0787         estimate D2E/DX2                !
 ! R33   R(14,15)                1.3866         estimate D2E/DX2                !
 ! R34   R(14,36)                1.0801         estimate D2E/DX2                !
 ! R35   R(15,16)                1.39           estimate D2E/DX2                !
 ! R36   R(15,37)                1.0807         estimate D2E/DX2                !
 ! R37   R(16,38)                1.0806         estimate D2E/DX2                !
 ! R38   R(17,18)                1.3923         estimate D2E/DX2                !
 ! R39   R(17,39)                1.0805         estimate D2E/DX2                !
 ! R40   R(18,19)                1.3903         estimate D2E/DX2                !
 ! R41   R(18,40)                1.0808         estimate D2E/DX2                !
 ! R42   R(19,20)                1.3931         estimate D2E/DX2                !
 ! R43   R(19,41)                1.08           estimate D2E/DX2                !
 ! R44   R(20,42)                1.0787         estimate D2E/DX2                !
 ! A1    A(2,1,21)             109.8846         estimate D2E/DX2                !
 ! A2    A(2,1,22)             111.9259         estimate D2E/DX2                !
 ! A3    A(2,1,23)             111.7148         estimate D2E/DX2                !
 ! A4    A(21,1,22)            107.7524         estimate D2E/DX2                !
 ! A5    A(21,1,23)            106.4707         estimate D2E/DX2                !
 ! A6    A(22,1,23)            108.8691         estimate D2E/DX2                !
 ! A7    A(1,2,3)              114.6405         estimate D2E/DX2                !
 ! A8    A(1,2,24)             112.1735         estimate D2E/DX2                !
 ! A9    A(3,2,24)             111.9195         estimate D2E/DX2                !
 ! A10   A(2,3,4)              113.0993         estimate D2E/DX2                !
 ! A11   A(2,3,25)             111.4086         estimate D2E/DX2                !
 ! A12   A(2,3,26)             107.0056         estimate D2E/DX2                !
 ! A13   A(4,3,25)             111.572          estimate D2E/DX2                !
 ! A14   A(4,3,26)             107.8126         estimate D2E/DX2                !
 ! A15   A(25,3,26)            105.4721         estimate D2E/DX2                !
 ! A16   A(3,4,5)              115.5069         estimate D2E/DX2                !
 ! A17   A(3,4,27)             103.9453         estimate D2E/DX2                !
 ! A18   A(3,4,28)             112.9864         estimate D2E/DX2                !
 ! A19   A(5,4,27)             105.3376         estimate D2E/DX2                !
 ! A20   A(5,4,28)             113.4062         estimate D2E/DX2                !
 ! A21   A(27,4,28)            104.1379         estimate D2E/DX2                !
 ! A22   A(4,5,6)              112.4574         estimate D2E/DX2                !
 ! A23   A(4,5,29)             111.1297         estimate D2E/DX2                !
 ! A24   A(4,5,30)             108.1986         estimate D2E/DX2                !
 ! A25   A(6,5,29)             112.0312         estimate D2E/DX2                !
 ! A26   A(6,5,30)             109.9862         estimate D2E/DX2                !
 ! A27   A(29,5,30)            102.5141         estimate D2E/DX2                !
 ! A28   A(5,6,7)              111.5995         estimate D2E/DX2                !
 ! A29   A(5,6,12)             113.7071         estimate D2E/DX2                !
 ! A30   A(7,6,12)             128.6305         estimate D2E/DX2                !
 ! A31   A(6,7,8)              123.4119         estimate D2E/DX2                !
 ! A32   A(6,7,20)             118.0057         estimate D2E/DX2                !
 ! A33   A(8,7,20)             118.3706         estimate D2E/DX2                !
 ! A34   A(7,8,9)              119.7317         estimate D2E/DX2                !
 ! A35   A(7,8,17)             119.6581         estimate D2E/DX2                !
 ! A36   A(9,8,17)             120.5227         estimate D2E/DX2                !
 ! A37   A(8,9,10)             112.0804         estimate D2E/DX2                !
 ! A38   A(8,9,31)             109.7712         estimate D2E/DX2                !
 ! A39   A(8,9,32)             109.2266         estimate D2E/DX2                !
 ! A40   A(10,9,31)            111.5303         estimate D2E/DX2                !
 ! A41   A(10,9,32)            108.8833         estimate D2E/DX2                !
 ! A42   A(31,9,32)            105.0874         estimate D2E/DX2                !
 ! A43   A(9,10,11)            117.2671         estimate D2E/DX2                !
 ! A44   A(9,10,33)            107.739          estimate D2E/DX2                !
 ! A45   A(9,10,34)            109.7056         estimate D2E/DX2                !
 ! A46   A(11,10,33)           108.3623         estimate D2E/DX2                !
 ! A47   A(11,10,34)           108.0663         estimate D2E/DX2                !
 ! A48   A(33,10,34)           105.0162         estimate D2E/DX2                !
 ! A49   A(10,11,12)           123.7593         estimate D2E/DX2                !
 ! A50   A(10,11,16)           116.9205         estimate D2E/DX2                !
 ! A51   A(12,11,16)           119.317          estimate D2E/DX2                !
 ! A52   A(6,12,11)            125.8114         estimate D2E/DX2                !
 ! A53   A(6,12,13)            116.7308         estimate D2E/DX2                !
 ! A54   A(11,12,13)           117.4373         estimate D2E/DX2                !
 ! A55   A(12,13,14)           122.5159         estimate D2E/DX2                !
 ! A56   A(12,13,35)           119.5137         estimate D2E/DX2                !
 ! A57   A(14,13,35)           117.9609         estimate D2E/DX2                !
 ! A58   A(13,14,15)           119.5183         estimate D2E/DX2                !
 ! A59   A(13,14,36)           119.9983         estimate D2E/DX2                !
 ! A60   A(15,14,36)           120.4795         estimate D2E/DX2                !
 ! A61   A(14,15,16)           119.5388         estimate D2E/DX2                !
 ! A62   A(14,15,37)           120.217          estimate D2E/DX2                !
 ! A63   A(16,15,37)           120.2436         estimate D2E/DX2                !
 ! A64   A(11,16,15)           121.6651         estimate D2E/DX2                !
 ! A65   A(11,16,38)           119.9545         estimate D2E/DX2                !
 ! A66   A(15,16,38)           118.3799         estimate D2E/DX2                !
 ! A67   A(8,17,18)            120.9682         estimate D2E/DX2                !
 ! A68   A(8,17,39)            120.0936         estimate D2E/DX2                !
 ! A69   A(18,17,39)           118.9352         estimate D2E/DX2                !
 ! A70   A(17,18,19)           119.7208         estimate D2E/DX2                !
 ! A71   A(17,18,40)           120.1315         estimate D2E/DX2                !
 ! A72   A(19,18,40)           120.1461         estimate D2E/DX2                !
 ! A73   A(18,19,20)           119.6009         estimate D2E/DX2                !
 ! A74   A(18,19,41)           120.3444         estimate D2E/DX2                !
 ! A75   A(20,19,41)           120.0545         estimate D2E/DX2                !
 ! A76   A(7,20,19)            121.6792         estimate D2E/DX2                !
 ! A77   A(7,20,42)            119.065          estimate D2E/DX2                !
 ! A78   A(19,20,42)           119.2542         estimate D2E/DX2                !
 ! D1    D(21,1,2,3)          -171.2895         estimate D2E/DX2                !
 ! D2    D(21,1,2,24)          -42.2069         estimate D2E/DX2                !
 ! D3    D(22,1,2,3)           -51.6128         estimate D2E/DX2                !
 ! D4    D(22,1,2,24)           77.4699         estimate D2E/DX2                !
 ! D5    D(23,1,2,3)            70.7688         estimate D2E/DX2                !
 ! D6    D(23,1,2,24)         -160.1485         estimate D2E/DX2                !
 ! D7    D(1,2,3,4)            -75.6987         estimate D2E/DX2                !
 ! D8    D(1,2,3,25)            50.9258         estimate D2E/DX2                !
 ! D9    D(1,2,3,26)           165.732          estimate D2E/DX2                !
 ! D10   D(24,2,3,4)           155.0922         estimate D2E/DX2                !
 ! D11   D(24,2,3,25)          -78.2833         estimate D2E/DX2                !
 ! D12   D(24,2,3,26)           36.523          estimate D2E/DX2                !
 ! D13   D(2,3,4,5)             90.555          estimate D2E/DX2                !
 ! D14   D(2,3,4,27)          -154.5821         estimate D2E/DX2                !
 ! D15   D(2,3,4,28)           -42.328          estimate D2E/DX2                !
 ! D16   D(25,3,4,5)           -35.9828         estimate D2E/DX2                !
 ! D17   D(25,3,4,27)           78.8801         estimate D2E/DX2                !
 ! D18   D(25,3,4,28)         -168.8657         estimate D2E/DX2                !
 ! D19   D(26,3,4,5)          -151.345          estimate D2E/DX2                !
 ! D20   D(26,3,4,27)          -36.4821         estimate D2E/DX2                !
 ! D21   D(26,3,4,28)           75.772          estimate D2E/DX2                !
 ! D22   D(3,4,5,6)           -165.1916         estimate D2E/DX2                !
 ! D23   D(3,4,5,29)           -38.6867         estimate D2E/DX2                !
 ! D24   D(3,4,5,30)            73.1265         estimate D2E/DX2                !
 ! D25   D(27,4,5,6)            80.7451         estimate D2E/DX2                !
 ! D26   D(27,4,5,29)         -152.7501         estimate D2E/DX2                !
 ! D27   D(27,4,5,30)          -40.9369         estimate D2E/DX2                !
 ! D28   D(28,4,5,6)           -32.503          estimate D2E/DX2                !
 ! D29   D(28,4,5,29)           94.0019         estimate D2E/DX2                !
 ! D30   D(28,4,5,30)         -154.1849         estimate D2E/DX2                !
 ! D31   D(4,5,6,7)            -96.3239         estimate D2E/DX2                !
 ! D32   D(4,5,6,12)           108.5575         estimate D2E/DX2                !
 ! D33   D(29,5,6,7)           137.6574         estimate D2E/DX2                !
 ! D34   D(29,5,6,12)          -17.4613         estimate D2E/DX2                !
 ! D35   D(30,5,6,7)            24.3351         estimate D2E/DX2                !
 ! D36   D(30,5,6,12)         -130.7835         estimate D2E/DX2                !
 ! D37   D(5,6,7,8)            -98.3941         estimate D2E/DX2                !
 ! D38   D(5,6,7,20)            76.2222         estimate D2E/DX2                !
 ! D39   D(12,6,7,8)            52.0588         estimate D2E/DX2                !
 ! D40   D(12,6,7,20)         -133.325          estimate D2E/DX2                !
 ! D41   D(5,6,12,11)          125.3227         estimate D2E/DX2                !
 ! D42   D(5,6,12,13)          -56.3729         estimate D2E/DX2                !
 ! D43   D(7,6,12,11)          -24.6264         estimate D2E/DX2                !
 ! D44   D(7,6,12,13)          153.678          estimate D2E/DX2                !
 ! D45   D(6,7,8,9)             -8.4932         estimate D2E/DX2                !
 ! D46   D(6,7,8,17)           174.8895         estimate D2E/DX2                !
 ! D47   D(20,7,8,9)           176.909          estimate D2E/DX2                !
 ! D48   D(20,7,8,17)            0.2918         estimate D2E/DX2                !
 ! D49   D(6,7,20,19)         -175.3305         estimate D2E/DX2                !
 ! D50   D(6,7,20,42)            5.128          estimate D2E/DX2                !
 ! D51   D(8,7,20,19)           -0.4372         estimate D2E/DX2                !
 ! D52   D(8,7,20,42)         -179.9787         estimate D2E/DX2                !
 ! D53   D(7,8,9,10)           -58.7051         estimate D2E/DX2                !
 ! D54   D(7,8,9,31)            65.8128         estimate D2E/DX2                !
 ! D55   D(7,8,9,32)          -179.46           estimate D2E/DX2                !
 ! D56   D(17,8,9,10)          117.8824         estimate D2E/DX2                !
 ! D57   D(17,8,9,31)         -117.5997         estimate D2E/DX2                !
 ! D58   D(17,8,9,32)           -2.8724         estimate D2E/DX2                !
 ! D59   D(7,8,17,18)           -0.2279         estimate D2E/DX2                !
 ! D60   D(7,8,17,39)          179.1337         estimate D2E/DX2                !
 ! D61   D(9,8,17,18)         -176.8179         estimate D2E/DX2                !
 ! D62   D(9,8,17,39)            2.5437         estimate D2E/DX2                !
 ! D63   D(8,9,10,11)           75.6356         estimate D2E/DX2                !
 ! D64   D(8,9,10,33)         -161.8865         estimate D2E/DX2                !
 ! D65   D(8,9,10,34)          -48.0881         estimate D2E/DX2                !
 ! D66   D(31,9,10,11)         -47.9004         estimate D2E/DX2                !
 ! D67   D(31,9,10,33)          74.5774         estimate D2E/DX2                !
 ! D68   D(31,9,10,34)        -171.6242         estimate D2E/DX2                !
 ! D69   D(32,9,10,11)        -163.4111         estimate D2E/DX2                !
 ! D70   D(32,9,10,33)         -40.9333         estimate D2E/DX2                !
 ! D71   D(32,9,10,34)          72.8651         estimate D2E/DX2                !
 ! D72   D(9,10,11,12)         -30.2261         estimate D2E/DX2                !
 ! D73   D(9,10,11,16)         150.4341         estimate D2E/DX2                !
 ! D74   D(33,10,11,12)       -152.3828         estimate D2E/DX2                !
 ! D75   D(33,10,11,16)         28.2773         estimate D2E/DX2                !
 ! D76   D(34,10,11,12)         94.3249         estimate D2E/DX2                !
 ! D77   D(34,10,11,16)        -85.015          estimate D2E/DX2                !
 ! D78   D(10,11,12,6)          -1.8028         estimate D2E/DX2                !
 ! D79   D(10,11,12,13)        179.9035         estimate D2E/DX2                !
 ! D80   D(16,11,12,6)         177.5221         estimate D2E/DX2                !
 ! D81   D(16,11,12,13)         -0.7715         estimate D2E/DX2                !
 ! D82   D(10,11,16,15)       -179.6061         estimate D2E/DX2                !
 ! D83   D(10,11,16,38)          0.1243         estimate D2E/DX2                !
 ! D84   D(12,11,16,15)          1.0234         estimate D2E/DX2                !
 ! D85   D(12,11,16,38)       -179.2463         estimate D2E/DX2                !
 ! D86   D(6,12,13,14)        -178.4083         estimate D2E/DX2                !
 ! D87   D(6,12,13,35)           0.4456         estimate D2E/DX2                !
 ! D88   D(11,12,13,14)          0.0424         estimate D2E/DX2                !
 ! D89   D(11,12,13,35)        178.8963         estimate D2E/DX2                !
 ! D90   D(12,13,14,15)          0.472          estimate D2E/DX2                !
 ! D91   D(12,13,14,36)        179.7572         estimate D2E/DX2                !
 ! D92   D(35,13,14,15)       -178.3988         estimate D2E/DX2                !
 ! D93   D(35,13,14,36)          0.8863         estimate D2E/DX2                !
 ! D94   D(13,14,15,16)         -0.241          estimate D2E/DX2                !
 ! D95   D(13,14,15,37)        179.482          estimate D2E/DX2                !
 ! D96   D(36,14,15,16)       -179.5227         estimate D2E/DX2                !
 ! D97   D(36,14,15,37)          0.2003         estimate D2E/DX2                !
 ! D98   D(14,15,16,11)         -0.5075         estimate D2E/DX2                !
 ! D99   D(14,15,16,38)        179.758          estimate D2E/DX2                !
 ! D100  D(37,15,16,11)        179.7696         estimate D2E/DX2                !
 ! D101  D(37,15,16,38)          0.0351         estimate D2E/DX2                !
 ! D102  D(8,17,18,19)           0.2939         estimate D2E/DX2                !
 ! D103  D(8,17,18,40)         179.8322         estimate D2E/DX2                !
 ! D104  D(39,17,18,19)       -179.0749         estimate D2E/DX2                !
 ! D105  D(39,17,18,40)          0.4633         estimate D2E/DX2                !
 ! D106  D(17,18,19,20)         -0.4266         estimate D2E/DX2                !
 ! D107  D(17,18,19,41)        179.7446         estimate D2E/DX2                !
 ! D108  D(40,18,19,20)       -179.9648         estimate D2E/DX2                !
 ! D109  D(40,18,19,41)          0.2064         estimate D2E/DX2                !
 ! D110  D(18,19,20,7)           0.5081         estimate D2E/DX2                !
 ! D111  D(18,19,20,42)       -179.9513         estimate D2E/DX2                !
 ! D112  D(41,19,20,7)        -179.6627         estimate D2E/DX2                !
 ! D113  D(41,19,20,42)         -0.1221         estimate D2E/DX2                !
 --------------------------------------------------------------------------------
 Trust Radius=3.00D-01 FncErr=1.00D-07 GrdErr=1.00D-06 EigMax=2.50D+02 EigMin=1.00D-04
 Number of steps in this run=    245 maximum allowed number of steps=    252.
 GradGradGradGradGradGradGradGradGradGradGradGradGradGradGradGradGradGrad

                          Input orientation:                          
 ---------------------------------------------------------------------
 Center     Atomic      Atomic             Coordinates (Angstroms)
 Number     Number       Type             X           Y           Z
 ---------------------------------------------------------------------
      1          6           0       -1.987500   -1.698200    2.992800
      2          7           0       -1.052800   -2.688600    3.514800
      3          6           0        0.356400   -2.338700    3.356700
      4          6           0        0.866100   -2.520400    1.914400
      5          6           0        0.739100   -1.279300    1.002400
      6          7           0        0.911000   -1.610100   -0.429400
      7          6           0        2.230000   -1.379100   -0.859400
      8          6           0        2.631000   -0.212500   -1.541000
      9          6           0        1.587200    0.778100   -2.012500
     10          6           0        0.577600    0.138700   -2.968200
     11          6           0       -0.487400   -0.767300   -2.356500
     12          6           0       -0.287600   -1.537700   -1.177900
     13          6           0       -1.361800   -2.326200   -0.729500
     14          6           0       -2.583800   -2.371800   -1.392600
     15          6           0       -2.763100   -1.624500   -2.546800
     16          6           0       -1.721100   -0.836700   -3.021900
     17          6           0        3.986200   -0.014500   -1.838900
     18          6           0        4.945900   -0.952200   -1.467100
     19          6           0        4.558200   -2.106200   -0.795700
     20          6           0        3.213200   -2.307800   -0.494000
     21          1           0       -3.005800   -1.958500    3.285500
     22          1           0       -1.776800   -0.697700    3.375000
     23          1           0       -1.977100   -1.668800    1.904500
     24          1           0       -1.271500   -2.956100    4.467100
     25          1           0        0.562200   -1.333500    3.731800
     26          1           0        0.926700   -3.012000    3.999800
     27          1           0        1.936700   -2.682600    2.032800
     28          1           0        0.507600   -3.438500    1.448700
     29          1           0       -0.193900   -0.747500    1.190100
     30          1           0        1.493400   -0.550400    1.310700
     31          1           0        1.092500    1.230900   -1.151600
     32          1           0        2.081900    1.605400   -2.523300
     33          1           0        0.075700    0.943000   -3.508400
     34          1           0        1.106100   -0.430200   -3.735100
     35          1           0       -1.241000   -2.937600    0.150900
     36          1           0       -3.380600   -2.995100   -1.014200
     37          1           0       -3.705000   -1.658000   -3.075600
     38          1           0       -1.879900   -0.265100   -3.925100
     39          1           0        4.299700    0.870600   -2.373500
     40          1           0        5.986900   -0.787100   -1.706100
     41          1           0        5.293700   -2.842200   -0.506200
     42          1           0        2.918700   -3.204800    0.027800
 ---------------------------------------------------------------------
                    Distance matrix (angstroms):
                    1          2          3          4          5
     1  C    0.000000
     2  N    1.458438   0.000000
     3  C    2.456935   1.460572   0.000000
     4  C    3.159429   2.504346   1.540467   0.000000
     5  C    3.401693   3.392519   2.609888   1.545381   0.000000
     6  N    4.485590   4.536120   3.895253   2.514768   1.479537
     7  C    5.720889   5.623628   4.712399   3.294959   2.387267
     8  C    6.640270   6.727746   5.803619   4.514539   3.344582
     9  C    6.630503   7.038370   6.329109   5.178864   3.747238
    10  C    6.744439   7.258176   6.796381   5.567210   4.219297
    11  C    5.633106   6.203486   5.985144   4.811020   3.612292
    12  C    4.506679   4.891987   4.649617   3.443696   2.423756
    13  C    3.826408   4.270936   4.432764   3.462869   2.917063
    14  C    4.476722   5.150427   5.585850   4.781228   4.239251
    15  C    5.594118   6.387521   6.715108   5.820312   4.998139
    16  C    6.081921   6.826757   6.874485   5.821985   4.737454
    17  C    7.865447   7.823326   6.750675   5.486513   4.496261
    18  C    8.277636   7.988668   6.801098   5.526171   4.889028
    19  C    7.573994   7.099501   5.911988   4.598674   4.301448
    20  C    6.290999   5.866365   4.794805   3.369639   3.068908
    21  H    1.091038   2.097578   3.384377   4.145752   4.438258
    22  H    1.091546   2.123064   2.691423   3.527110   3.506742
    23  H    1.088747   2.118346   2.828935   2.968014   2.888466
    24  H    2.066042   1.013046   2.065001   3.357893   4.342616
    25  H    2.679570   2.119342   1.092465   2.191810   2.735664
    26  H    3.351519   2.063549   1.091857   2.143417   3.467254
    27  H    4.158123   3.336686   2.090054   1.089271   2.113107
    28  H    3.411512   2.695546   2.207461   1.090095   2.216962
    29  H    2.714877   3.147985   2.743885   2.188923   1.090198
    30  H    4.032812   3.989122   2.945658   2.153801   1.093304
    31  H    5.936504   6.460656   5.797297   4.850141   3.326516
    32  H    7.609280   8.045087   7.287501   6.180095   4.749228
    33  H    7.314255   7.986700   7.614325   6.482795   5.072084
    34  H    7.512844   7.894446   7.382279   6.028548   4.826962
    35  H    3.189008   3.378349   3.631463   2.779183   2.719523
    36  H    4.436071   5.101415   5.787987   5.180396   4.897201
    37  H    6.306893   7.178417   7.637592   6.821934   6.043469
    38  H    7.065599   7.868263   7.894648   6.835690   5.671686
    39  H    8.655911   8.717181   7.660575   6.455585   5.356925
    40  H    9.300582   8.968326   7.729291   6.506531   5.926014
    41  H    8.158898   7.514659   6.289073   5.056333   5.046079
    42  H    5.927214   5.310221   4.289182   2.870685   3.067255
                    6          7          8          9         10
     6  N    0.000000
     7  C    1.406422   0.000000
     8  C    2.479383   1.409374   0.000000
     9  C    2.943969   2.529099   1.514305   0.000000
    10  C    3.100800   3.079152   2.525211   1.530192   0.000000
    11  C    2.525777   3.162257   3.270667   2.609705   1.526184
    12  C    1.414969   2.542618   3.225868   3.094247   2.600781
    13  C    2.401766   3.716840   4.590067   4.469829   3.853412
    14  C    3.704264   4.943928   5.646126   5.263401   4.333541
    15  C    4.240590   5.276229   5.665836   4.998307   3.800885
    16  C    3.774540   4.536716   4.639339   3.817239   2.497661
    17  C    3.740252   2.430184   1.401612   2.532499   3.594070
    18  C    4.217828   2.815609   2.431333   3.817364   4.746094
    19  C    3.698967   2.439928   2.802797   4.315858   5.060090
    20  C    2.406467   1.400958   2.413596   3.804274   4.365022
    21  H    5.409546   6.702947   7.623459   7.526847   7.506515
    22  H    4.746599   5.869318   6.620512   6.520708   6.817547
    23  H    3.713712   5.042099   5.935222   5.833905   5.791093
    24  H    5.527272   6.566508   7.671643   8.006349   8.263210
    25  H    4.184944   4.884952   5.773993   6.205358   6.859855
    26  H    4.645792   5.289308   6.437570   7.137848   7.655182
    27  H    2.874847   3.185900   4.399488   5.335077   5.900584
    28  H    2.651988   3.540497   4.884077   5.561039   5.684212
    29  H    2.141883   3.236458   3.965500   3.969436   4.321113
    30  H    2.118986   2.436936   3.088770   3.580135   4.429733
    31  H    2.936971   2.862060   2.145231   1.091286   2.181297
    32  H    4.011841   3.420195   2.138033   1.090903   2.147572
    33  H    4.086109   4.129208   3.425697   2.132965   1.091154
    34  H    3.515378   3.230048   2.680819   2.158425   1.091373
    35  H    2.594245   3.936683   5.028029   5.146401   4.743386
    36  H    4.547312   5.840741   6.645278   6.317648   5.413517
    37  H    5.320914   6.341416   6.677527   5.922174   4.645463
    38  H    4.670981   5.246979   5.102442   4.094763   2.667961
    39  H    4.627816   3.411350   2.156553   2.737980   3.839710
    40  H    5.298307   3.896365   3.408737   4.679860   5.631210
    41  H    4.553244   3.413454   3.882796   5.395707   6.098263
    42  H    2.604411   2.143505   3.390835   4.668962   5.063177
                   11         12         13         14         15
    11  C    0.000000
    12  C    1.422158   0.000000
    13  C    2.416997   1.405952   0.000000
    14  C    2.810412   2.452418   1.391066   0.000000
    15  C    2.439225   2.830110   2.399709   1.386645   0.000000
    16  C    1.403421   2.438577   2.757318   2.399042   1.390005
    17  C    4.565930   4.585022   5.930921   6.994351   6.974688
    18  C    5.508718   5.274085   6.497616   7.662715   7.813221
    19  C    5.448562   4.893981   5.924456   7.171820   7.543197
    20  C    4.420010   3.649161   4.581094   5.866582   6.355867
    21  H    6.292333   5.242864   4.354097   4.715243   5.846895
    22  H    5.875159   4.863354   4.435218   5.117018   6.074493
    23  H    4.603046   3.517497   2.783653   3.425370   4.520379
    24  H    7.208826   5.903045   5.235416   6.033210   7.293341
    25  H    6.204002   4.986884   4.958874   6.102037   7.110775
    26  H    6.887736   5.518756   5.298475   6.466177   7.641842
    27  H    5.367550   4.070246   4.317108   5.680218   6.646836
    28  H    4.754459   3.338325   3.078380   4.332157   5.472851
    29  H    3.558779   2.498123   2.746115   3.875605   4.618911
    30  H    4.173604   3.215564   3.932944   5.220047   5.843953
    31  H    2.817920   3.093625   4.342202   5.152932   4.996553
    32  H    3.501261   4.159773   5.525782   6.234209   5.822957
    33  H    2.137541   3.423023   4.525081   4.747362   3.946583
    34  H    2.133874   3.115803   4.326543   4.782518   4.220085
    35  H    3.400760   2.152766   1.078660   2.122648   3.364313
    36  H    3.890433   3.423078   2.145701   1.080083   2.146791
    37  H    3.415172   3.910800   3.382494   2.144549   1.080707
    38  H    2.156796   3.420824   3.837762   3.368563   2.127844
    39  H    5.059578   5.317207   6.706329   7.671890   7.492576
    40  H    6.506917   6.341273   7.571391   8.721609   8.830091
    41  H    6.414822   5.770945   6.679206   7.941158   8.399933
    42  H    4.819524   3.809632   4.434876   5.743599   6.434964
                   16         17         18         19         20
    16  C    0.000000
    17  C    5.886321   0.000000
    18  C    6.846870   1.392315   0.000000
    19  C    6.782124   2.406379   1.390254   0.000000
    20  C    5.736003   2.768666   2.405582   1.393087   0.000000
    21  H    6.533926   8.884069   9.318228   8.596052   7.285780
    22  H    6.398652   7.801518   8.288872   7.714327   6.516263
    23  H    5.002734   7.232614   7.733636   7.084670   5.753289
    24  H    7.796096   8.721356   8.825328   7.899671   6.719028
    25  H    7.146519   6.670550   6.811077   6.087967   5.082760
    26  H    7.813261   7.241268   7.091103   6.083181   5.090994
    27  H    6.506677   5.129256   4.929388   3.899348   2.855634
    28  H    5.632294   5.884959   5.863624   4.818684   3.517504
    29  H    4.481210   5.213959   5.789660   5.326530   4.108413
    30  H    5.402444   4.052311   4.449424   4.031183   3.050100
    31  H    3.960977   3.224423   4.440063   4.824311   4.177584
    32  H    4.547006   2.592072   3.982383   4.784625   4.550938
    33  H    2.575365   4.358445   5.610485   6.062109   5.431226
    34  H    2.943969   3.473234   4.490030   4.833843   4.297672
    35  H    3.835484   6.310898   6.696079   5.934475   4.544496
    36  H    3.382823   7.989609   8.585404   7.991397   6.649901
    37  H    2.147854   7.961475   8.827429   8.583665   7.412718
    38  H    1.080608   6.231064   7.287346   7.391341   6.471842
    39  H    6.291687   1.080501   2.135822   3.378996   3.849056
    40  H    7.819658   2.148801   1.080768   2.147100   3.387496
    41  H    7.717396   3.388441   2.148579   1.080031   2.148072
    42  H    6.036250   3.847355   3.379123   2.138465   1.078710
                   21         22         23         24         25
    21  H    0.000000
    22  H    1.762971   0.000000
    23  H    1.746228   1.773563   0.000000
    24  H    2.323614   2.558980   2.953292   0.000000
    25  H    3.649717   2.449994   3.146346   2.556551   0.000000
    26  H    4.133357   3.613208   3.824464   2.248016   1.738403
    27  H    5.149940   4.419436   4.045007   4.036479   2.568253
    28  H    4.231810   4.054763   3.084368   3.536756   3.105890
    29  H    3.709987   2.698489   2.130484   4.096079   2.715754
    30  H    5.111299   3.870044   3.694291   4.836830   2.709632
    31  H    6.830534   5.695831   5.212528   7.395218   5.541206
    32  H    8.504601   7.415105   6.841146   8.995458   7.076221
    33  H    8.004463   7.314701   6.350982   8.979228   7.605237
    34  H    8.278421   7.676991   6.545635   8.905573   7.540980
    35  H    3.728119   3.962203   2.286222   4.316347   4.318276
    36  H    4.438742   5.207235   3.499671   5.873200   6.389922
    37  H    6.406463   6.800763   5.271352   8.031146   8.040833
    38  H    7.491863   7.313633   5.997004   8.834062   8.107617
    39  H    9.664286   8.510503   8.009248   9.616429   7.490104
    40  H   10.351662   9.279041   8.788579   9.772274   7.700434
    41  H    9.167312   8.345931   7.749379   8.237022   6.528699
    42  H    6.874996   6.287847   5.463530   6.109584   4.772261
                   26         27         28         29         30
    26  H    0.000000
    27  H    2.235552   0.000000
    28  H    2.620240   1.718978   0.000000
    29  H    3.778640   2.999035   2.792930   0.000000
    30  H    3.689428   2.294389   3.054827   1.703048   0.000000
    31  H    6.675823   5.115521   5.376520   3.324523   3.065399
    32  H    8.075005   6.258280   6.610305   4.950227   4.437720
    33  H    8.528733   6.878459   6.630002   5.000638   5.240596
    34  H    8.156381   6.247549   6.023276   5.103751   5.062069
    35  H    4.417974   3.701939   2.234455   2.640624   3.810617
    36  H    6.610092   6.136411   4.623914   4.479476   5.927697
    37  H    8.564301   7.679475   6.433154   5.599378   6.891282
    38  H    8.844575   7.477119   6.681942   5.407456   6.234914
    39  H    8.189668   6.133880   6.896200   5.959021   4.844367
    40  H    7.944375   5.828929   6.856049   6.825821   5.417440
    41  H    6.277225   4.212059   5.204225   6.113833   4.795389
    42  H    4.447698   2.292824   2.808376   4.132498   3.274622
                   31         32         33         34         35
    31  H    0.000000
    32  H    1.732260   0.000000
    33  H    2.582881   2.331102   0.000000
    34  H    3.071467   2.562091   1.731703   0.000000
    35  H    4.951578   6.231521   5.493927   5.186225   0.000000
    36  H    6.155207   7.299376   5.803075   5.840590   2.436935
    37  H    5.921446   6.666560   4.609361   5.008904   4.256639
    38  H    4.331914   4.599964   2.336133   2.996590   4.915712
    39  H    3.450940   2.341155   4.374405   3.707441   7.181528
    40  H    5.323058   4.651978   6.417462   5.297776   7.766314
    41  H    5.887000   5.845126   7.111151   5.812016   6.568347
    42  H    4.939780   5.508754   6.147488   5.014314   4.170090
                   36         37         38         39         40
    36  H    0.000000
    37  H    2.478395   0.000000
    38  H    4.263606   2.448022   0.000000
    39  H    8.705076   8.423894   6.471842   0.000000
    40  H    9.649044   9.826847   8.190420   2.457648   0.000000
    41  H    8.690508   9.432961   8.354092   4.273140   2.478653
    42  H    6.388342   7.476435   6.877050   4.927706   4.273820
                   41         42
    41  H    0.000000
    42  H    2.461150   0.000000
 Stoichiometry    C18H22N2
 Framework group  C1[X(C18H22N2)]
 Deg. of freedom   120
 Full point group                 C1      NOp   1
 Largest Abelian subgroup         C1      NOp   1
 Largest concise Abelian subgroup C1      NOp   1
                         Standard orientation:                         
 ---------------------------------------------------------------------
 Center     Atomic      Atomic             Coordinates (Angstroms)
 Number     Number       Type             X           Y           Z
 ---------------------------------------------------------------------
      1          6           0       -4.097960   -0.958460    0.991297
      2          7           0       -3.932102   -2.132141    0.141590
      3          6           0       -2.659064   -2.828744    0.307086
      4          6           0       -1.478654   -2.097102   -0.359526
      5          6           0       -0.729001   -1.087240    0.538472
      6          7           0        0.145177   -0.180729   -0.238109
      7          6           0        1.474582   -0.639077   -0.263034
      8          6           0        2.480737   -0.148735    0.593443
      9          6           0        2.201295    1.055381    1.468163
     10          6           0        1.805821    2.284039    0.646282
     11          6           0        0.393378    2.314001    0.068923
     12          6           0       -0.331955    1.149630   -0.306132
     13          6           0       -1.626803    1.331429   -0.822869
     14          6           0       -2.201922    2.589019   -0.973768
     15          6           0       -1.480787    3.717618   -0.614585
     16          6           0       -0.195635    3.576010   -0.104247
     17          6           0        3.753350   -0.735814    0.575807
     18          6           0        4.038939   -1.801670   -0.273269
     19          6           0        3.052235   -2.290205   -1.122124
     20          6           0        1.784394   -1.713095   -1.107537
     21          1           0       -5.122842   -0.591043    0.920684
     22          1           0       -3.896418   -1.182959    2.040321
     23          1           0       -3.453896   -0.139020    0.676543
     24          1           0       -4.720581   -2.764969    0.205551
     25          1           0       -2.455999   -3.043899    1.358730
     26          1           0       -2.763170   -3.803004   -0.174715
     27          1           0       -0.760059   -2.889832   -0.563762
     28          1           0       -1.725086   -1.700811   -1.344682
     29          1           0       -1.422089   -0.539230    1.177100
     30          1           0       -0.134212   -1.650273    1.262718
     31          1           0        1.438410    0.805551    2.207417
     32          1           0        3.093516    1.291817    2.049635
     33          1           0        1.937397    3.163460    1.278678
     34          1           0        2.510536    2.419100   -0.176051
     35          1           0       -2.199947    0.472479   -1.134669
     36          1           0       -3.198782    2.681839   -1.379026
     37          1           0       -1.913437    4.700607   -0.734892
     38          1           0        0.350944    4.468199    0.165871
     39          1           0        4.533978   -0.356436    1.219370
     40          1           0        5.025739   -2.242428   -0.277707
     41          1           0        3.263980   -3.113893   -1.787832
     42          1           0        1.022787   -2.097076   -1.767937
 ---------------------------------------------------------------------
 Rotational constants (GHZ):           0.4048338           0.2950750           0.1899212
 Standard basis: 6-31G(d,p) (6D, 7F)
 There are   410 symmetry adapted cartesian basis functions of A   symmetry.
 There are   410 symmetry adapted basis functions of A   symmetry.
   410 basis functions,   714 primitive gaussians,   410 cartesian basis functions
    72 alpha electrons       72 beta electrons
       nuclear repulsion energy      1536.1344794345 Hartrees.
 NAtoms=   42 NActive=   42 NUniq=   42 SFac= 1.00D+00 NAtFMM=   60 NAOKFM=F Big=F
 Integral buffers will be    131072 words long.
 Raffenetti 2 integral format.
 Two-electron integral symmetry is turned on.
 Nuclear repulsion after empirical dispersion term =     1536.0418007183 Hartrees.
 One-electron integrals computed using PRISM.
 NBasis=   410 RedAO= T EigKep=  3.65D-04  NBF=   410
 NBsUse=   410 1.00D-06 EigRej= -1.00D+00 NBFU=   410
 ExpMin= 1.61D-01 ExpMax= 4.17D+03 ExpMxC= 6.27D+02 IAcc=3 IRadAn=         5 AccDes= 0.00D+00
 Harris functional with IExCor=  402 and IRadAn=       5 diagonalized for initial guess.
 HarFok:  IExCor=  402 AccDes= 0.00D+00 IRadAn=         5 IDoV= 1 UseB2=F ITyADJ=14
 ICtDFT=  3500011 ScaDFX=  1.000000  1.000000  1.000000  1.000000
 FoFCou: FMM=F IPFlag=           0 FMFlag=      100000 FMFlg1=           0
         NFxFlg=           0 DoJE=T BraDBF=F KetDBF=T FulRan=T
         wScrn=  0.000000 ICntrl=       500 IOpCl=  0 I1Cent=   200000004 NGrid=           0
         NMat0=    1 NMatS0=      1 NMatT0=    0 NMatD0=    1 NMtDS0=    0 NMtDT0=    0
 Petite list used in FoFCou.
 Requested convergence on RMS density matrix=1.00D-08 within 128 cycles.
 Requested convergence on MAX density matrix=1.00D-06.
 Requested convergence on             energy=1.00D-06.
 No special actions if energy rises.
 Integral accuracy reduced to 1.0D-05 until final iterations.
 Initial convergence to 1.0D-05 achieved.  Increase integral accuracy.
 SCF Done:  E(RB3LYP) =  -808.761009927     A.U. after   14 cycles
            NFock= 14  Conv=0.59D-08     -V/T= 2.0096

 **********************************************************************

            Population analysis using the SCF Density.

 **********************************************************************

 Orbital symmetries:
       Occupied  (A) (A) (A) (A) (A) (A) (A) (A) (A) (A) (A) (A)
                 (A) (A) (A) (A) (A) (A) (A) (A) (A) (A) (A) (A)
                 (A) (A) (A) (A) (A) (A) (A) (A) (A) (A) (A) (A)
                 (A) (A) (A) (A) (A) (A) (A) (A) (A) (A) (A) (A)
                 (A) (A) (A) (A) (A) (A) (A) (A) (A) (A) (A) (A)
                 (A) (A) (A) (A) (A) (A) (A) (A) (A) (A) (A) (A)
       Virtual   (A) (A) (A) (A) (A) (A) (A) (A) (A) (A) (A) (A)
                 (A) (A) (A) (A) (A) (A) (A) (A) (A) (A) (A) (A)
                 (A) (A) (A) (A) (A) (A) (A) (A) (A) (A) (A) (A)
                 (A) (A) (A) (A) (A) (A) (A) (A) (A) (A) (A) (A)
                 (A) (A) (A) (A) (A) (A) (A) (A) (A) (A) (A) (A)
                 (A) (A) (A) (A) (A) (A) (A) (A) (A) (A) (A) (A)
                 (A) (A) (A) (A) (A) (A) (A) (A) (A) (A) (A) (A)
                 (A) (A) (A) (A) (A) (A) (A) (A) (A) (A) (A) (A)
                 (A) (A) (A) (A) (A) (A) (A) (A) (A) (A) (A) (A)
                 (A) (A) (A) (A) (A) (A) (A) (A) (A) (A) (A) (A)
                 (A) (A) (A) (A) (A) (A) (A) (A) (A) (A) (A) (A)
                 (A) (A) (A) (A) (A) (A) (A) (A) (A) (A) (A) (A)
                 (A) (A) (A) (A) (A) (A) (A) (A) (A) (A) (A) (A)
                 (A) (A) (A) (A) (A) (A) (A) (A) (A) (A) (A) (A)
                 (A) (A) (A) (A) (A) (A) (A) (A) (A) (A) (A) (A)
                 (A) (A) (A) (A) (A) (A) (A) (A) (A) (A) (A) (A)
                 (A) (A) (A) (A) (A) (A) (A) (A) (A) (A) (A) (A)
                 (A) (A) (A) (A) (A) (A) (A) (A) (A) (A) (A) (A)
                 (A) (A) (A) (A) (A) (A) (A) (A) (A) (A) (A) (A)
                 (A) (A) (A) (A) (A) (A) (A) (A) (A) (A) (A) (A)
                 (A) (A) (A) (A) (A) (A) (A) (A) (A) (A) (A) (A)
                 (A) (A) (A) (A) (A) (A) (A) (A) (A) (A) (A) (A)
                 (A) (A) (A) (A) (A) (A) (A) (A) (A) (A) (A) (A)
                 (A) (A) (A) (A) (A) (A) (A) (A) (A) (A) (A) (A)
                 (A) (A) (A) (A) (A) (A) (A) (A) (A) (A) (A) (A)
                 (A) (A) (A) (A) (A) (A) (A) (A) (A) (A) (A) (A)
                 (A) (A) (A) (A) (A) (A) (A) (A) (A) (A) (A) (A)
                 (A) (A) (A) (A) (A) (A) (A) (A) (A) (A) (A) (A)
                 (A) (A)
 The electronic state is 1-A.
 Alpha  occ. eigenvalues --  -14.33800 -14.30890 -10.21938 -10.21600 -10.20938
 Alpha  occ. eigenvalues --  -10.20298 -10.19348 -10.18995 -10.18784 -10.18592
 Alpha  occ. eigenvalues --  -10.18490 -10.18347 -10.18303 -10.18236 -10.18050
 Alpha  occ. eigenvalues --  -10.17739 -10.17680 -10.17337 -10.17270 -10.17248
 Alpha  occ. eigenvalues --   -0.94384  -0.89060  -0.84887  -0.83702  -0.79317
 Alpha  occ. eigenvalues --   -0.76304  -0.74915  -0.74764  -0.71922  -0.70211
 Alpha  occ. eigenvalues --   -0.67835  -0.64469  -0.63409  -0.60191  -0.59287
 Alpha  occ. eigenvalues --   -0.58306  -0.57541  -0.55909  -0.51392  -0.49850
 Alpha  occ. eigenvalues --   -0.49217  -0.47246  -0.46848  -0.46573  -0.45048
 Alpha  occ. eigenvalues --   -0.44729  -0.43391  -0.42686  -0.42410  -0.42082
 Alpha  occ. eigenvalues --   -0.40929  -0.40403  -0.39645  -0.38853  -0.38398
 Alpha  occ. eigenvalues --   -0.37763  -0.37435  -0.36067  -0.35662  -0.35092
 Alpha  occ. eigenvalues --   -0.34128  -0.33792  -0.33513  -0.32303  -0.32115
 Alpha  occ. eigenvalues --   -0.31659  -0.26521  -0.24293  -0.23675  -0.23268
 Alpha  occ. eigenvalues --   -0.20849  -0.19124
 Alpha virt. eigenvalues --   -0.00018   0.00345   0.00832   0.01564   0.08070
 Alpha virt. eigenvalues --    0.09737   0.10360   0.10661   0.11751   0.12249
 Alpha virt. eigenvalues --    0.13425   0.13593   0.14240   0.14393   0.15448
 Alpha virt. eigenvalues --    0.15999   0.16448   0.17236   0.17447   0.17850
 Alpha virt. eigenvalues --    0.18096   0.18556   0.18773   0.19064   0.20305
 Alpha virt. eigenvalues --    0.21036   0.21574   0.22227   0.22587   0.23772
 Alpha virt. eigenvalues --    0.24309   0.25352   0.25923   0.27306   0.27993
 Alpha virt. eigenvalues --    0.28149   0.29568   0.30037   0.31936   0.33027
 Alpha virt. eigenvalues --    0.34128   0.34789   0.35455   0.36720   0.38642
 Alpha virt. eigenvalues --    0.41928   0.46699   0.49689   0.50573   0.51102
 Alpha virt. eigenvalues --    0.51447   0.52431   0.53081   0.53433   0.54391
 Alpha virt. eigenvalues --    0.54443   0.54986   0.55904   0.56975   0.57201
 Alpha virt. eigenvalues --    0.57675   0.58160   0.59327   0.59792   0.60130
 Alpha virt. eigenvalues --    0.61076   0.61300   0.61506   0.61851   0.62358
 Alpha virt. eigenvalues --    0.62676   0.62903   0.63146   0.63428   0.64326
 Alpha virt. eigenvalues --    0.66390   0.66954   0.67465   0.68230   0.69274
 Alpha virt. eigenvalues --    0.70495   0.71086   0.72411   0.73231   0.74881
 Alpha virt. eigenvalues --    0.75779   0.76143   0.77093   0.78190   0.79681
 Alpha virt. eigenvalues --    0.80835   0.81653   0.82210   0.82328   0.83097
 Alpha virt. eigenvalues --    0.83225   0.83615   0.84088   0.84618   0.85395
 Alpha virt. eigenvalues --    0.86385   0.86739   0.87999   0.88537   0.89404
 Alpha virt. eigenvalues --    0.89839   0.91472   0.92208   0.92594   0.93161
 Alpha virt. eigenvalues --    0.93862   0.94107   0.94912   0.95738   0.96251
 Alpha virt. eigenvalues --    0.98193   0.98528   0.99071   0.99747   1.01772
 Alpha virt. eigenvalues --    1.03314   1.04257   1.05653   1.06397   1.07893
 Alpha virt. eigenvalues --    1.08805   1.09589   1.11957   1.13421   1.14094
 Alpha virt. eigenvalues --    1.16120   1.17848   1.18884   1.20445   1.21365
 Alpha virt. eigenvalues --    1.22666   1.23793   1.25132   1.28223   1.29339
 Alpha virt. eigenvalues --    1.31380   1.32125   1.34653   1.35878   1.36072
 Alpha virt. eigenvalues --    1.38459   1.38627   1.40589   1.41451   1.41912
 Alpha virt. eigenvalues --    1.42358   1.43213   1.44302   1.45331   1.45981
 Alpha virt. eigenvalues --    1.47887   1.50211   1.53267   1.55075   1.58346
 Alpha virt. eigenvalues --    1.61776   1.62586   1.63033   1.68245   1.69631
 Alpha virt. eigenvalues --    1.70590   1.73013   1.73575   1.76382   1.77292
 Alpha virt. eigenvalues --    1.78196   1.78751   1.79449   1.80838   1.81922
 Alpha virt. eigenvalues --    1.83799   1.84632   1.85762   1.86677   1.87430
 Alpha virt. eigenvalues --    1.88290   1.89085   1.89717   1.91477   1.92278
 Alpha virt. eigenvalues --    1.92618   1.93801   1.94316   1.94587   1.94956
 Alpha virt. eigenvalues --    1.95157   1.96487   1.97192   1.98524   1.99954
 Alpha virt. eigenvalues --    2.00885   2.01302   2.02028   2.02120   2.03636
 Alpha virt. eigenvalues --    2.03958   2.05863   2.06985   2.08528   2.08840
 Alpha virt. eigenvalues --    2.09675   2.10090   2.12031   2.14687   2.14924
 Alpha virt. eigenvalues --    2.17244   2.18663   2.20618   2.21369   2.22022
 Alpha virt. eigenvalues --    2.24091   2.24664   2.25353   2.25788   2.27271
 Alpha virt. eigenvalues --    2.28239   2.28733   2.29874   2.30754   2.32119
 Alpha virt. eigenvalues --    2.32628   2.33316   2.35353   2.36926   2.37486
 Alpha virt. eigenvalues --    2.39453   2.39700   2.39950   2.40465   2.41298
 Alpha virt. eigenvalues --    2.42091   2.43865   2.44001   2.45134   2.45471
 Alpha virt. eigenvalues --    2.46959   2.47324   2.47704   2.49624   2.50199
 Alpha virt. eigenvalues --    2.51289   2.52570   2.53155   2.55452   2.56253
 Alpha virt. eigenvalues --    2.57809   2.58068   2.58815   2.60329   2.60370
 Alpha virt. eigenvalues --    2.61121   2.61951   2.63471   2.64284   2.65886
 Alpha virt. eigenvalues --    2.67401   2.68027   2.69934   2.70383   2.70860
 Alpha virt. eigenvalues --    2.72649   2.73650   2.74451   2.75183   2.75974
 Alpha virt. eigenvalues --    2.77490   2.79089   2.80059   2.81033   2.81813
 Alpha virt. eigenvalues --    2.83565   2.84308   2.85835   2.87383   2.88270
 Alpha virt. eigenvalues --    2.88722   2.90969   2.92169   2.94022   2.96333
 Alpha virt. eigenvalues --    2.98612   2.99942   3.01134   3.05788   3.07679
 Alpha virt. eigenvalues --    3.07946   3.16808   3.21991   3.22602   3.23668
 Alpha virt. eigenvalues --    3.25907   3.26789   3.29887   3.30256   3.31591
 Alpha virt. eigenvalues --    3.32386   3.35703   3.37348   3.37842   3.39194
 Alpha virt. eigenvalues --    3.39672   3.41570   3.44681   3.45169   3.46666
 Alpha virt. eigenvalues --    3.49492   3.50373   3.52278   3.53863   3.56315
 Alpha virt. eigenvalues --    3.59771   3.86463   3.87748   4.07015   4.14334
 Alpha virt. eigenvalues --    4.14770   4.17413   4.17905   4.21799   4.23618
 Alpha virt. eigenvalues --    4.30655   4.35311   4.41663   4.45663   4.49019
 Alpha virt. eigenvalues --    4.50145   4.51154   4.56774   4.60607   4.66172
 Alpha virt. eigenvalues --    4.74617   4.85255   4.89215
          Condensed to atoms (all electrons):
               1          2          3          4          5          6
     1  C    4.817349   0.326050  -0.055639   0.001309  -0.002095   0.000023
     2  N    0.326050   6.774039   0.333146  -0.070274  -0.000550  -0.000066
     3  C   -0.055639   0.333146   4.833026   0.334535  -0.031910   0.003884
     4  C    0.001309  -0.070274   0.334535   5.024830   0.373476  -0.057956
     5  C   -0.002095  -0.000550  -0.031910   0.373476   4.868938   0.282216
     6  N    0.000023  -0.000066   0.003884  -0.057956   0.282216   7.221438
     7  C   -0.000000  -0.000004   0.000104  -0.003566  -0.039905   0.271837
     8  C   -0.000000   0.000000   0.000012  -0.000237  -0.005319  -0.076193
     9  C   -0.000000  -0.000000  -0.000000   0.000044   0.000133  -0.006711
    10  C    0.000000  -0.000000   0.000000  -0.000014   0.000049  -0.015760
    11  C   -0.000003   0.000001   0.000007  -0.000243   0.001604  -0.067069
    12  C   -0.000269   0.000068   0.000075  -0.002856  -0.029779   0.259401
    13  C   -0.003656  -0.000618  -0.000124  -0.000473  -0.008158  -0.076778
    14  C   -0.000422  -0.000015   0.000003   0.000097  -0.000431   0.005675
    15  C    0.000001   0.000000  -0.000000  -0.000001   0.000038   0.000000
    16  C    0.000002  -0.000000  -0.000000   0.000006  -0.000048   0.007037
    17  C    0.000000   0.000000  -0.000000   0.000016  -0.000003   0.007585
    18  C    0.000000  -0.000000  -0.000000   0.000001   0.000047  -0.000017
    19  C   -0.000000   0.000000   0.000001  -0.000084  -0.000095   0.006071
    20  C   -0.000000  -0.000000  -0.000018  -0.001926  -0.004124  -0.082999
    21  H    0.380908  -0.029010   0.005408  -0.000177   0.000154  -0.000002
    22  H    0.369524  -0.055274  -0.009178  -0.002252  -0.000704   0.000009
    23  H    0.385115  -0.045946  -0.001704   0.004558  -0.003410   0.000155
    24  H   -0.039823   0.346698  -0.035379   0.005807  -0.000097   0.000003
    25  H   -0.009783  -0.055309   0.365369  -0.060529  -0.007455   0.000128
    26  H    0.006358  -0.035522   0.377747  -0.025794   0.004003  -0.000118
    27  H   -0.000152   0.004671  -0.032215   0.358742  -0.038124   0.000366
    28  H   -0.000161   0.001434  -0.028875   0.382638  -0.040172   0.000834
    29  H    0.000459   0.000386  -0.001845  -0.055676   0.379058  -0.035061
    30  H   -0.000040  -0.000044   0.001212  -0.044792   0.369259  -0.041383
    31  H    0.000000  -0.000000   0.000000   0.000009   0.001319   0.002511
    32  H    0.000000  -0.000000  -0.000000  -0.000000  -0.000018   0.000103
    33  H   -0.000000   0.000000   0.000000  -0.000000   0.000022  -0.000021
    34  H    0.000000  -0.000000   0.000000   0.000000  -0.000015   0.000476
    35  H   -0.001074   0.002767  -0.000003  -0.001222   0.001838  -0.009466
    36  H    0.000027  -0.000005  -0.000000   0.000001   0.000004  -0.000136
    37  H    0.000000   0.000000   0.000000   0.000000  -0.000000   0.000005
    38  H   -0.000000  -0.000000   0.000000  -0.000000   0.000001  -0.000098
    39  H   -0.000000  -0.000000   0.000000  -0.000000  -0.000002  -0.000127
    40  H   -0.000000   0.000000  -0.000000   0.000000   0.000000   0.000005
    41  H    0.000000   0.000000  -0.000000   0.000001   0.000004  -0.000146
    42  H   -0.000000  -0.000001   0.000092   0.000416  -0.001832  -0.002867
               7          8          9         10         11         12
     1  C   -0.000000  -0.000000  -0.000000   0.000000  -0.000003  -0.000269
     2  N   -0.000004   0.000000  -0.000000  -0.000000   0.000001   0.000068
     3  C    0.000104   0.000012  -0.000000   0.000000   0.000007   0.000075
     4  C   -0.003566  -0.000237   0.000044  -0.000014  -0.000243  -0.002856
     5  C   -0.039905  -0.005319   0.000133   0.000049   0.001604  -0.029779
     6  N    0.271837  -0.076193  -0.006711  -0.015760  -0.067069   0.259401
     7  C    4.728450   0.506392  -0.068078   0.000456  -0.003275  -0.014649
     8  C    0.506392   4.827820   0.362754  -0.039666  -0.006505  -0.005436
     9  C   -0.068078   0.362754   5.048071   0.338536  -0.031689  -0.001266
    10  C    0.000456  -0.039666   0.338536   5.051577   0.358401  -0.058382
    11  C   -0.003275  -0.006505  -0.031689   0.358401   4.823264   0.517739
    12  C   -0.014649  -0.005436  -0.001266  -0.058382   0.517739   4.698491
    13  C    0.004301  -0.000022  -0.000126   0.008035  -0.047137   0.491762
    14  C   -0.000110   0.000003   0.000006  -0.000085  -0.036270  -0.021367
    15  C    0.000032  -0.000002  -0.000173   0.007112  -0.026238  -0.043614
    16  C   -0.000539   0.000160   0.003162  -0.063527   0.504749  -0.003491
    17  C   -0.007644   0.512770  -0.059243  -0.002155   0.000010  -0.000185
    18  C   -0.043689  -0.027439   0.007380  -0.000135   0.000004   0.000020
    19  C   -0.022688  -0.035407  -0.000071   0.000025  -0.000002  -0.000169
    20  C    0.517562  -0.057084   0.008580   0.000025  -0.000015   0.005149
    21  H    0.000000   0.000000  -0.000000   0.000000   0.000000   0.000005
    22  H   -0.000000   0.000000  -0.000000  -0.000000   0.000001   0.000008
    23  H    0.000005   0.000000   0.000000  -0.000001  -0.000049   0.000453
    24  H    0.000000  -0.000000   0.000000   0.000000  -0.000000  -0.000001
    25  H   -0.000011   0.000001  -0.000000   0.000000   0.000000   0.000031
    26  H   -0.000002  -0.000000   0.000000  -0.000000  -0.000000  -0.000005
    27  H    0.000631   0.000147  -0.000004  -0.000000   0.000013   0.000371
    28  H    0.000048  -0.000008  -0.000000   0.000000  -0.000041  -0.000465
    29  H    0.002354   0.000672  -0.000238   0.000057   0.001939   0.001591
    30  H    0.002954   0.003915   0.000087  -0.000009   0.000110   0.002589
    31  H   -0.008188  -0.027245   0.366270  -0.040609  -0.003230   0.000098
    32  H    0.005827  -0.031357   0.364244  -0.027997   0.003942   0.000160
    33  H    0.000274   0.004876  -0.033120   0.365160  -0.032965   0.004110
    34  H   -0.000597  -0.002969  -0.041112   0.370735  -0.032513  -0.002281
    35  H    0.000159  -0.000009   0.000005  -0.000154   0.004561  -0.038730
    36  H    0.000001  -0.000000  -0.000000   0.000008   0.000997   0.003806
    37  H   -0.000000   0.000000   0.000002  -0.000178   0.004022   0.001053
    38  H    0.000001  -0.000007   0.000196  -0.010840  -0.043437   0.004419
    39  H    0.004459  -0.036155  -0.011095   0.000345  -0.000001  -0.000002
    40  H    0.001070   0.003898  -0.000180   0.000001   0.000000  -0.000000
    41  H    0.003775   0.000919   0.000009  -0.000000   0.000000   0.000001
    42  H   -0.035227   0.005854  -0.000189   0.000007   0.000016   0.000258
              13         14         15         16         17         18
     1  C   -0.003656  -0.000422   0.000001   0.000002   0.000000   0.000000
     2  N   -0.000618  -0.000015   0.000000  -0.000000   0.000000  -0.000000
     3  C   -0.000124   0.000003  -0.000000  -0.000000  -0.000000  -0.000000
     4  C   -0.000473   0.000097  -0.000001   0.000006   0.000016   0.000001
     5  C   -0.008158  -0.000431   0.000038  -0.000048  -0.000003   0.000047
     6  N   -0.076778   0.005675   0.000000   0.007037   0.007585  -0.000017
     7  C    0.004301  -0.000110   0.000032  -0.000539  -0.007644  -0.043689
     8  C   -0.000022   0.000003  -0.000002   0.000160   0.512770  -0.027439
     9  C   -0.000126   0.000006  -0.000173   0.003162  -0.059243   0.007380
    10  C    0.008035  -0.000085   0.007112  -0.063527  -0.002155  -0.000135
    11  C   -0.047137  -0.036270  -0.026238   0.504749   0.000010   0.000004
    12  C    0.491762  -0.021367  -0.043614  -0.003491  -0.000185   0.000020
    13  C    4.964026   0.527316  -0.032339  -0.054963   0.000004  -0.000000
    14  C    0.527316   4.819835   0.543555  -0.031409  -0.000000   0.000000
    15  C   -0.032339   0.543555   4.836221   0.516033  -0.000000   0.000000
    16  C   -0.054963  -0.031409   0.516033   4.941705   0.000006  -0.000000
    17  C    0.000004  -0.000000  -0.000000   0.000006   4.944304   0.511193
    18  C   -0.000000   0.000000   0.000000  -0.000000   0.511193   4.834290
    19  C    0.000001   0.000000  -0.000000   0.000000  -0.032318   0.544681
    20  C   -0.000188  -0.000002   0.000000  -0.000007  -0.053946  -0.030626
    21  H    0.000050   0.000001   0.000000  -0.000000   0.000000  -0.000000
    22  H   -0.000016  -0.000002   0.000000  -0.000000   0.000000  -0.000000
    23  H    0.009187   0.002049  -0.000044  -0.000014  -0.000000   0.000000
    24  H    0.000004   0.000000  -0.000000   0.000000  -0.000000   0.000000
    25  H   -0.000042  -0.000000   0.000000  -0.000000  -0.000000   0.000000
    26  H    0.000003   0.000000  -0.000000   0.000000   0.000000  -0.000000
    27  H   -0.000075  -0.000004   0.000000  -0.000000  -0.000008  -0.000015
    28  H   -0.001592   0.000067   0.000001  -0.000001  -0.000001   0.000001
    29  H   -0.000180  -0.000160  -0.000041  -0.000084  -0.000003  -0.000001
    30  H    0.000465   0.000014  -0.000001  -0.000002  -0.000476  -0.000020
    31  H   -0.000124  -0.000012  -0.000011   0.000479   0.002567  -0.000290
    32  H    0.000003  -0.000000   0.000002  -0.000152  -0.007929   0.000240
    33  H   -0.000177   0.000012   0.000375  -0.007592  -0.000067   0.000003
    34  H   -0.000242   0.000055  -0.000255  -0.002237   0.001649  -0.000080
    35  H    0.361304  -0.039809   0.004948   0.000771  -0.000000   0.000000
    36  H   -0.036554   0.364775  -0.041725   0.004664   0.000000  -0.000000
    37  H    0.004878  -0.042641   0.364388  -0.038141  -0.000000  -0.000000
    38  H    0.000467   0.005357  -0.044580   0.366272  -0.000000  -0.000000
    39  H   -0.000000   0.000000  -0.000000  -0.000000   0.361560  -0.045363
    40  H    0.000000  -0.000000  -0.000000   0.000000  -0.037465   0.365039
    41  H   -0.000000  -0.000000  -0.000000   0.000000   0.004624  -0.041904
    42  H   -0.000015   0.000001   0.000000  -0.000000   0.000613   0.004963
              19         20         21         22         23         24
     1  C   -0.000000  -0.000000   0.380908   0.369524   0.385115  -0.039823
     2  N    0.000000  -0.000000  -0.029010  -0.055274  -0.045946   0.346698
     3  C    0.000001  -0.000018   0.005408  -0.009178  -0.001704  -0.035379
     4  C   -0.000084  -0.001926  -0.000177  -0.002252   0.004558   0.005807
     5  C   -0.000095  -0.004124   0.000154  -0.000704  -0.003410  -0.000097
     6  N    0.006071  -0.082999  -0.000002   0.000009   0.000155   0.000003
     7  C   -0.022688   0.517562   0.000000  -0.000000   0.000005   0.000000
     8  C   -0.035407  -0.057084   0.000000   0.000000   0.000000  -0.000000
     9  C   -0.000071   0.008580  -0.000000  -0.000000   0.000000   0.000000
    10  C    0.000025   0.000025   0.000000  -0.000000  -0.000001   0.000000
    11  C   -0.000002  -0.000015   0.000000   0.000001  -0.000049  -0.000000
    12  C   -0.000169   0.005149   0.000005   0.000008   0.000453  -0.000001
    13  C    0.000001  -0.000188   0.000050  -0.000016   0.009187   0.000004
    14  C    0.000000  -0.000002   0.000001  -0.000002   0.002049   0.000000
    15  C   -0.000000   0.000000   0.000000   0.000000  -0.000044  -0.000000
    16  C    0.000000  -0.000007  -0.000000  -0.000000  -0.000014   0.000000
    17  C   -0.032318  -0.053946   0.000000   0.000000  -0.000000  -0.000000
    18  C    0.544681  -0.030626  -0.000000  -0.000000   0.000000   0.000000
    19  C    4.836880   0.512468   0.000000   0.000000   0.000000  -0.000000
    20  C    0.512468   4.946579   0.000000   0.000000  -0.000000  -0.000000
    21  H    0.000000   0.000000   0.614221  -0.037223  -0.026956  -0.006570
    22  H    0.000000   0.000000  -0.037223   0.694442  -0.054864  -0.002204
    23  H    0.000000  -0.000000  -0.026956  -0.054864   0.607534   0.005818
    24  H   -0.000000  -0.000000  -0.006570  -0.002204   0.005818   0.499236
    25  H    0.000000  -0.000004  -0.000032   0.016757  -0.002338  -0.000952
    26  H   -0.000000   0.000014  -0.000291  -0.000103  -0.000055  -0.007557
    27  H    0.000333   0.002159   0.000004   0.000052  -0.000108  -0.000305
    28  H    0.000009  -0.000319  -0.000032   0.000222  -0.000614   0.000126
    29  H    0.000012   0.000145  -0.000005   0.002795   0.001014  -0.000068
    30  H   -0.000005  -0.000314  -0.000005   0.000036   0.000227   0.000008
    31  H    0.000042  -0.000173  -0.000000  -0.000000  -0.000002   0.000000
    32  H    0.000004  -0.000198  -0.000000  -0.000000  -0.000000   0.000000
    33  H   -0.000000   0.000007  -0.000000   0.000000   0.000000   0.000000
    34  H   -0.000008  -0.000217  -0.000000  -0.000000  -0.000000   0.000000
    35  H   -0.000000   0.000023  -0.000007   0.000214  -0.002038  -0.000038
    36  H    0.000000  -0.000000   0.000004  -0.000002   0.000152   0.000000
    37  H   -0.000000  -0.000000  -0.000000   0.000000  -0.000001  -0.000000
    38  H    0.000000   0.000000   0.000000  -0.000000   0.000000   0.000000
    39  H    0.004929   0.000549   0.000000   0.000000   0.000000   0.000000
    40  H   -0.041682   0.004481   0.000000   0.000000   0.000000  -0.000000
    41  H    0.364582  -0.035297  -0.000000   0.000000  -0.000000  -0.000000
    42  H   -0.042397   0.356775   0.000000  -0.000000   0.000000   0.000000
              25         26         27         28         29         30
     1  C   -0.009783   0.006358  -0.000152  -0.000161   0.000459  -0.000040
     2  N   -0.055309  -0.035522   0.004671   0.001434   0.000386  -0.000044
     3  C    0.365369   0.377747  -0.032215  -0.028875  -0.001845   0.001212
     4  C   -0.060529  -0.025794   0.358742   0.382638  -0.055676  -0.044792
     5  C   -0.007455   0.004003  -0.038124  -0.040172   0.379058   0.369259
     6  N    0.000128  -0.000118   0.000366   0.000834  -0.035061  -0.041383
     7  C   -0.000011  -0.000002   0.000631   0.000048   0.002354   0.002954
     8  C    0.000001  -0.000000   0.000147  -0.000008   0.000672   0.003915
     9  C   -0.000000   0.000000  -0.000004  -0.000000  -0.000238   0.000087
    10  C    0.000000  -0.000000  -0.000000   0.000000   0.000057  -0.000009
    11  C    0.000000  -0.000000   0.000013  -0.000041   0.001939   0.000110
    12  C    0.000031  -0.000005   0.000371  -0.000465   0.001591   0.002589
    13  C   -0.000042   0.000003  -0.000075  -0.001592  -0.000180   0.000465
    14  C   -0.000000   0.000000  -0.000004   0.000067  -0.000160   0.000014
    15  C    0.000000  -0.000000   0.000000   0.000001  -0.000041  -0.000001
    16  C   -0.000000   0.000000  -0.000000  -0.000001  -0.000084  -0.000002
    17  C   -0.000000   0.000000  -0.000008  -0.000001  -0.000003  -0.000476
    18  C    0.000000  -0.000000  -0.000015   0.000001  -0.000001  -0.000020
    19  C    0.000000  -0.000000   0.000333   0.000009   0.000012  -0.000005
    20  C   -0.000004   0.000014   0.002159  -0.000319   0.000145  -0.000314
    21  H   -0.000032  -0.000291   0.000004  -0.000032  -0.000005  -0.000005
    22  H    0.016757  -0.000103   0.000052   0.000222   0.002795   0.000036
    23  H   -0.002338  -0.000055  -0.000108  -0.000614   0.001014   0.000227
    24  H   -0.000952  -0.007557  -0.000305   0.000126  -0.000068   0.000008
    25  H    0.714634  -0.045630   0.002911   0.005596   0.002136   0.003182
    26  H   -0.045630   0.647293  -0.009117  -0.001364  -0.000009  -0.000211
    27  H    0.002911  -0.009117   0.655250  -0.035854   0.006655  -0.011835
    28  H    0.005596  -0.001364  -0.035854   0.590248  -0.000444   0.005006
    29  H    0.002136  -0.000009   0.006655  -0.000444   0.614962  -0.031673
    30  H    0.003182  -0.000211  -0.011835   0.005006  -0.031673   0.634998
    31  H    0.000000  -0.000000   0.000001   0.000001   0.000124   0.000303
    32  H   -0.000000   0.000000  -0.000000   0.000000  -0.000002   0.000000
    33  H   -0.000000  -0.000000   0.000000  -0.000000  -0.000005  -0.000003
    34  H    0.000000  -0.000000   0.000000   0.000000   0.000004   0.000005
    35  H    0.000097  -0.000007  -0.000014   0.004241  -0.000990   0.000066
    36  H   -0.000000   0.000000  -0.000000  -0.000005  -0.000005  -0.000000
    37  H    0.000000   0.000000  -0.000000   0.000000   0.000000  -0.000000
    38  H   -0.000000  -0.000000   0.000000  -0.000000   0.000001  -0.000000
    39  H    0.000000  -0.000000   0.000000   0.000000  -0.000000   0.000010
    40  H    0.000000  -0.000000   0.000000   0.000000   0.000000  -0.000000
    41  H   -0.000000  -0.000000  -0.000003  -0.000001  -0.000000  -0.000005
    42  H    0.000012  -0.000021   0.002408   0.001530   0.000017   0.000610
              31         32         33         34         35         36
     1  C    0.000000   0.000000  -0.000000   0.000000  -0.001074   0.000027
     2  N   -0.000000  -0.000000   0.000000  -0.000000   0.002767  -0.000005
     3  C    0.000000  -0.000000   0.000000   0.000000  -0.000003  -0.000000
     4  C    0.000009  -0.000000  -0.000000   0.000000  -0.001222   0.000001
     5  C    0.001319  -0.000018   0.000022  -0.000015   0.001838   0.000004
     6  N    0.002511   0.000103  -0.000021   0.000476  -0.009466  -0.000136
     7  C   -0.008188   0.005827   0.000274  -0.000597   0.000159   0.000001
     8  C   -0.027245  -0.031357   0.004876  -0.002969  -0.000009  -0.000000
     9  C    0.366270   0.364244  -0.033120  -0.041112   0.000005  -0.000000
    10  C   -0.040609  -0.027997   0.365160   0.370735  -0.000154   0.000008
    11  C   -0.003230   0.003942  -0.032965  -0.032513   0.004561   0.000997
    12  C    0.000098   0.000160   0.004110  -0.002281  -0.038730   0.003806
    13  C   -0.000124   0.000003  -0.000177  -0.000242   0.361304  -0.036554
    14  C   -0.000012  -0.000000   0.000012   0.000055  -0.039809   0.364775
    15  C   -0.000011   0.000002   0.000375  -0.000255   0.004948  -0.041725
    16  C    0.000479  -0.000152  -0.007592  -0.002237   0.000771   0.004664
    17  C    0.002567  -0.007929  -0.000067   0.001649  -0.000000   0.000000
    18  C   -0.000290   0.000240   0.000003  -0.000080   0.000000  -0.000000
    19  C    0.000042   0.000004  -0.000000  -0.000008  -0.000000   0.000000
    20  C   -0.000173  -0.000198   0.000007  -0.000217   0.000023  -0.000000
    21  H   -0.000000  -0.000000  -0.000000  -0.000000  -0.000007   0.000004
    22  H   -0.000000  -0.000000   0.000000  -0.000000   0.000214  -0.000002
    23  H   -0.000002  -0.000000   0.000000  -0.000000  -0.002038   0.000152
    24  H    0.000000   0.000000   0.000000   0.000000  -0.000038   0.000000
    25  H    0.000000  -0.000000  -0.000000   0.000000   0.000097  -0.000000
    26  H   -0.000000   0.000000  -0.000000  -0.000000  -0.000007   0.000000
    27  H    0.000001  -0.000000   0.000000   0.000000  -0.000014  -0.000000
    28  H    0.000001   0.000000  -0.000000   0.000000   0.004241  -0.000005
    29  H    0.000124  -0.000002  -0.000005   0.000004  -0.000990  -0.000005
    30  H    0.000303   0.000000  -0.000003   0.000005   0.000066  -0.000000
    31  H    0.627003  -0.037251  -0.001645   0.006101   0.000005   0.000000
    32  H   -0.037251   0.635947  -0.006631  -0.001735  -0.000000   0.000000
    33  H   -0.001645  -0.006631   0.637909  -0.036509   0.000003  -0.000000
    34  H    0.006101  -0.001735  -0.036509   0.618828   0.000003  -0.000000
    35  H    0.000005  -0.000000   0.000003   0.000003   0.619865  -0.006744
    36  H    0.000000   0.000000  -0.000000  -0.000000  -0.006744   0.635465
    37  H    0.000000  -0.000000  -0.000014   0.000003  -0.000218  -0.006061
    38  H    0.000019  -0.000015   0.005618   0.001102   0.000016  -0.000236
    39  H    0.000217   0.006789  -0.000029   0.000130  -0.000000  -0.000000
    40  H    0.000003  -0.000012  -0.000000   0.000001   0.000000   0.000000
    41  H   -0.000000  -0.000000   0.000000  -0.000000  -0.000000  -0.000000
    42  H   -0.000002   0.000003  -0.000000   0.000002   0.000007  -0.000000
              37         38         39         40         41         42
     1  C    0.000000  -0.000000  -0.000000  -0.000000   0.000000  -0.000000
     2  N    0.000000  -0.000000  -0.000000   0.000000   0.000000  -0.000001
     3  C    0.000000   0.000000   0.000000  -0.000000  -0.000000   0.000092
     4  C    0.000000  -0.000000  -0.000000   0.000000   0.000001   0.000416
     5  C   -0.000000   0.000001  -0.000002   0.000000   0.000004  -0.001832
     6  N    0.000005  -0.000098  -0.000127   0.000005  -0.000146  -0.002867
     7  C   -0.000000   0.000001   0.004459   0.001070   0.003775  -0.035227
     8  C    0.000000  -0.000007  -0.036155   0.003898   0.000919   0.005854
     9  C    0.000002   0.000196  -0.011095  -0.000180   0.000009  -0.000189
    10  C   -0.000178  -0.010840   0.000345   0.000001  -0.000000   0.000007
    11  C    0.004022  -0.043437  -0.000001   0.000000   0.000000   0.000016
    12  C    0.001053   0.004419  -0.000002  -0.000000   0.000001   0.000258
    13  C    0.004878   0.000467  -0.000000   0.000000  -0.000000  -0.000015
    14  C   -0.042641   0.005357   0.000000  -0.000000  -0.000000   0.000001
    15  C    0.364388  -0.044580  -0.000000  -0.000000  -0.000000   0.000000
    16  C   -0.038141   0.366272  -0.000000   0.000000   0.000000  -0.000000
    17  C   -0.000000  -0.000000   0.361560  -0.037465   0.004624   0.000613
    18  C   -0.000000  -0.000000  -0.045363   0.365039  -0.041904   0.004963
    19  C   -0.000000   0.000000   0.004929  -0.041682   0.364582  -0.042397
    20  C   -0.000000   0.000000   0.000549   0.004481  -0.035297   0.356775
    21  H   -0.000000   0.000000   0.000000   0.000000  -0.000000   0.000000
    22  H    0.000000  -0.000000   0.000000   0.000000   0.000000  -0.000000
    23  H   -0.000001   0.000000   0.000000   0.000000  -0.000000   0.000000
    24  H   -0.000000   0.000000   0.000000  -0.000000  -0.000000   0.000000
    25  H    0.000000  -0.000000   0.000000   0.000000  -0.000000   0.000012
    26  H    0.000000  -0.000000  -0.000000  -0.000000  -0.000000  -0.000021
    27  H   -0.000000   0.000000   0.000000   0.000000  -0.000003   0.002408
    28  H    0.000000  -0.000000   0.000000   0.000000  -0.000001   0.001530
[...]
    32  H   -0.000050   0.000016  -0.000058  -0.000223  -0.002808   0.000188
    33  H    0.000103  -0.000166   0.001930  -0.010126   0.000807  -0.000043
    34  H   -0.001320   0.000735  -0.001228  -0.001759  -0.003482   0.000588
    35  H    0.407110  -0.053076   0.021093  -0.009892  -0.000019   0.000005
    36  H   -0.036602   0.410064  -0.042077   0.006967   0.000000  -0.000000
    37  H    0.010239  -0.045277   0.422595  -0.044956  -0.000000   0.000000
    38  H   -0.002759   0.007552  -0.034556   0.416241  -0.000009  -0.000001
    39  H   -0.000007   0.000001  -0.000001   0.000011   0.400895  -0.035142
    40  H    0.000000  -0.000000   0.000000  -0.000000  -0.040522   0.416697
    41  H   -0.000001   0.000000  -0.000000   0.000000   0.004054  -0.033022
    42  H    0.000653  -0.000043   0.000004  -0.000008   0.001316   0.000054
              19         20         21         22         23         24
     1  C   -0.000000   0.000004   0.407458   0.415605   0.420670  -0.038758
     2  N    0.000004  -0.000016  -0.035095  -0.044231  -0.046286   0.343326
     3  C    0.000111   0.002969   0.011493  -0.010544  -0.007490  -0.053837
     4  C   -0.000091  -0.015492  -0.000483  -0.001181   0.000694   0.013064
     5  C   -0.000671   0.024250   0.000097  -0.000303   0.000410  -0.005270
     6  N    0.007426  -0.070472  -0.000000  -0.000001  -0.000006   0.000169
     7  C   -0.003828   0.367318   0.000001  -0.000001  -0.000002  -0.000017
     8  C   -0.089097   0.035685  -0.000000   0.000000   0.000000   0.000001
     9  C   -0.005046   0.013213   0.000000  -0.000000  -0.000000  -0.000000
    10  C    0.000002   0.001929  -0.000000   0.000000   0.000000  -0.000000
    11  C    0.000404   0.002657  -0.000005   0.000002  -0.000005  -0.000163
    12  C   -0.000379  -0.000532   0.000036  -0.000019   0.000034   0.000982
    13  C   -0.000432   0.007015   0.000652  -0.000654   0.000527   0.007219
    14  C    0.000012  -0.000669   0.000020   0.000001   0.000017   0.001051
    15  C    0.000003   0.000172  -0.000008   0.000002  -0.000004  -0.000213
    16  C    0.000018  -0.001038   0.000002  -0.000000   0.000001   0.000064
    17  C    0.000976  -0.131531   0.000000  -0.000000   0.000000   0.000000
    18  C    0.496135   0.002588  -0.000000   0.000000  -0.000000  -0.000000
    19  C    4.962147   0.436730   0.000000  -0.000000   0.000000   0.000002
    20  C    0.436730   5.176667  -0.000000   0.000000  -0.000000   0.000005
    21  H    0.000000  -0.000000   0.532809  -0.033996  -0.017785  -0.005478
    22  H   -0.000000   0.000000  -0.033996   0.602029  -0.050510  -0.012688
    23  H    0.000000  -0.000000  -0.017785  -0.050510   0.543473   0.009836
    24  H    0.000002   0.000005  -0.005478  -0.012688   0.009836   0.535505
    25  H    0.000017  -0.000113   0.000363  -0.005232   0.005535   0.010871
    26  H   -0.000007   0.000023  -0.000357   0.013225  -0.002195  -0.012964
    27  H    0.001526  -0.001684   0.000017   0.000068  -0.000031  -0.000020
    28  H    0.000180  -0.005254   0.000039  -0.000189   0.000040   0.003529
    29  H    0.000128  -0.000239  -0.000089   0.000426  -0.000855  -0.000885
    30  H    0.000758  -0.007766  -0.000001   0.000013  -0.000071  -0.000233
    31  H   -0.000245   0.001059   0.000000   0.000000  -0.000000   0.000000
    32  H    0.000228  -0.000673   0.000000  -0.000000  -0.000000   0.000000
    33  H   -0.000008   0.000063   0.000000  -0.000000  -0.000000  -0.000000
    34  H    0.000003  -0.001002   0.000000  -0.000000   0.000000   0.000000
    35  H   -0.000016   0.001010  -0.001401   0.001499  -0.001115  -0.015073
    36  H   -0.000000  -0.000005   0.000051  -0.000008   0.000007   0.000298
    37  H   -0.000000   0.000000  -0.000000   0.000000  -0.000000  -0.000001
    38  H    0.000001   0.000001   0.000000  -0.000000   0.000000   0.000000
    39  H    0.005662  -0.002192  -0.000000  -0.000000   0.000000  -0.000000
    40  H   -0.040034   0.008088   0.000000   0.000000  -0.000000  -0.000000
    41  H    0.402695  -0.030345   0.000000   0.000000   0.000000   0.000000
    42  H   -0.010835   0.377291  -0.000000  -0.000000  -0.000000  -0.000011
              25         26         27         28         29         30
     1  C   -0.007087  -0.006404  -0.000665   0.000359  -0.001100   0.000200
     2  N   -0.052583  -0.048088   0.005618  -0.012093   0.020369   0.000934
     3  C    0.421177   0.440801  -0.021952  -0.031303   0.005521   0.002240
     4  C   -0.012303  -0.065548   0.409022   0.461537  -0.080191  -0.065271
     5  C   -0.018254   0.009993  -0.033401  -0.098789   0.424918   0.392049
     6  N    0.000852  -0.000546   0.000124   0.008275  -0.034004  -0.039788
     7  C    0.000072  -0.000197   0.007246   0.006297   0.011025   0.000658
     8  C    0.000028  -0.000001  -0.000768   0.000552   0.000619   0.008089
     9  C   -0.000005   0.000000  -0.000017  -0.000067  -0.000103  -0.000444
    10  C    0.000001   0.000000  -0.000018   0.000043  -0.000080   0.000451
    11  C   -0.000016   0.000021  -0.000164   0.000960   0.005213   0.003213
    12  C    0.000150  -0.000005  -0.001232   0.003305  -0.007874   0.011405
    13  C    0.001377  -0.001867   0.000307  -0.007118  -0.016964   0.000638
    14  C    0.000075  -0.000035   0.000093   0.001090  -0.000333  -0.000074
    15  C   -0.000010   0.000008  -0.000013  -0.000147   0.000246   0.000009
    16  C    0.000007  -0.000004   0.000019   0.000135  -0.000306  -0.000011
    17  C    0.000003  -0.000000   0.000028  -0.000005  -0.000020   0.000005
    18  C   -0.000002   0.000001  -0.000233   0.000004  -0.000029  -0.000242
    19  C    0.000017  -0.000007   0.001526   0.000180   0.000128   0.000758
    20  C   -0.000113   0.000023  -0.001684  -0.005254  -0.000239  -0.007766
    21  H    0.000363  -0.000357   0.000017   0.000039  -0.000089  -0.000001
    22  H   -0.005232   0.013225   0.000068  -0.000189   0.000426   0.000013
    23  H    0.005535  -0.002195  -0.000031   0.000040  -0.000855  -0.000071
    24  H    0.010871  -0.012964  -0.000020   0.003529  -0.000885  -0.000233
    25  H    0.546266  -0.046960  -0.001622   0.005891  -0.002570   0.001226
    26  H   -0.046960   0.588399  -0.003862  -0.005160   0.001491  -0.000172
    27  H   -0.001622  -0.003862   0.529878  -0.019085   0.004346  -0.005053
    28  H    0.005891  -0.005160  -0.019085   0.481606   0.005448   0.004541
    29  H   -0.002570   0.001491   0.004346   0.005448   0.469780  -0.002948
    30  H    0.001226  -0.000172  -0.005053   0.004541  -0.002948   0.514969
    31  H   -0.000000   0.000000   0.000009  -0.000007  -0.000110  -0.000349
    32  H   -0.000000   0.000000  -0.000001  -0.000001  -0.000023  -0.000075
    33  H   -0.000000   0.000000   0.000000  -0.000002  -0.000019  -0.000020
    34  H    0.000000  -0.000000   0.000001   0.000003   0.000014   0.000023
    35  H   -0.002289   0.003867   0.000200  -0.008096  -0.001155   0.001149
    36  H    0.000004  -0.000006   0.000000   0.000033  -0.000075  -0.000003
    37  H   -0.000000   0.000000  -0.000000   0.000001   0.000003   0.000000
    38  H    0.000000  -0.000000   0.000000  -0.000000  -0.000003  -0.000001
    39  H    0.000000  -0.000000   0.000000   0.000000   0.000000   0.000024
    40  H   -0.000000   0.000000   0.000001   0.000000   0.000000  -0.000003
    41  H   -0.000000   0.000000   0.000110  -0.000016  -0.000001  -0.000036
    42  H   -0.000012  -0.000094  -0.010980   0.000279  -0.000384   0.001403
              31         32         33         34         35         36
     1  C   -0.000000  -0.000000   0.000000  -0.000000  -0.003309   0.000039
     2  N    0.000000  -0.000000  -0.000000  -0.000000   0.077438  -0.000590
     3  C   -0.000008  -0.000000  -0.000000   0.000000  -0.014676   0.000023
     4  C    0.000287   0.000012  -0.000000   0.000014   0.020071  -0.000049
     5  C    0.000725   0.000066   0.000241  -0.000449  -0.028265   0.000314
     6  N    0.005254   0.001459   0.000843  -0.001687  -0.017834  -0.000147
     7  C   -0.015675   0.013776  -0.000482   0.001664  -0.004193   0.000055
     8  C   -0.059749  -0.059335   0.011336  -0.010638   0.000103  -0.000004
     9  C    0.461063   0.443572  -0.046504  -0.036122  -0.000299  -0.000003
    10  C   -0.051615  -0.058564   0.433987   0.435679   0.000440   0.000051
    11  C   -0.012898   0.008800  -0.064991  -0.058388   0.029875  -0.001737
    12  C    0.002996  -0.000309   0.010596   0.001549  -0.141357   0.013934
    13  C    0.000016  -0.000050   0.000103  -0.001320   0.407110  -0.036602
    14  C    0.000087   0.000016  -0.000166   0.000735  -0.053076   0.410064
    15  C   -0.000120  -0.000058   0.001930  -0.001228   0.021093  -0.042077
    16  C    0.001073  -0.000223  -0.010126  -0.001759  -0.009892   0.006967
    17  C    0.000565  -0.002808   0.000807  -0.003482  -0.000019   0.000000
    18  C    0.000348   0.000188  -0.000043   0.000588   0.000005  -0.000000
    19  C   -0.000245   0.000228  -0.000008   0.000003  -0.000016  -0.000000
    20  C    0.001059  -0.000673   0.000063  -0.001002   0.001010  -0.000005
    21  H    0.000000   0.000000   0.000000   0.000000  -0.001401   0.000051
    22  H    0.000000  -0.000000  -0.000000  -0.000000   0.001499  -0.000008
    23  H   -0.000000  -0.000000  -0.000000   0.000000  -0.001115   0.000007
    24  H    0.000000   0.000000  -0.000000   0.000000  -0.015073   0.000298
    25  H   -0.000000  -0.000000  -0.000000   0.000000  -0.002289   0.000004
    26  H    0.000000   0.000000   0.000000  -0.000000   0.003867  -0.000006
    27  H    0.000009  -0.000001   0.000000   0.000001   0.000200   0.000000
    28  H   -0.000007  -0.000001  -0.000002   0.000003  -0.008096   0.000033
    29  H   -0.000110  -0.000023  -0.000019   0.000014  -0.001155  -0.000075
    30  H   -0.000349  -0.000075  -0.000020   0.000023   0.001149  -0.000003
    31  H    0.496653  -0.015382   0.002312   0.004857   0.000012   0.000001
    32  H   -0.015382   0.523564  -0.008350   0.001454  -0.000001   0.000000
    33  H    0.002312  -0.008350   0.549029  -0.029595   0.000016  -0.000002
    34  H    0.004857   0.001454  -0.029595   0.526908  -0.000010   0.000000
    35  H    0.000012  -0.000001   0.000016  -0.000010   0.682557  -0.010871
    36  H    0.000001   0.000000  -0.000002   0.000000  -0.010871   0.531461
    37  H   -0.000002  -0.000001  -0.000050  -0.000017  -0.000216  -0.004148
    38  H    0.000022  -0.000030   0.001252   0.000553  -0.000011  -0.000374
    39  H   -0.000102   0.002525  -0.000109   0.000497  -0.000000  -0.000000
    40  H    0.000012  -0.000051  -0.000001   0.000011   0.000000   0.000000
    41  H   -0.000002   0.000000   0.000000  -0.000005  -0.000000  -0.000000
    42  H   -0.000013   0.000006  -0.000003  -0.000010   0.000051  -0.000001
              37         38         39         40         41         42
     1  C   -0.000000   0.000000   0.000000  -0.000000  -0.000000   0.000008
     2  N    0.000002  -0.000000   0.000000   0.000000   0.000000  -0.000113
     3  C    0.000000   0.000000   0.000000  -0.000000  -0.000005   0.001907
     4  C   -0.000001  -0.000003  -0.000002   0.000001   0.000170  -0.005252
     5  C   -0.000005   0.000053  -0.000009  -0.000007   0.000093  -0.001905
     6  N    0.000023  -0.000218  -0.000354   0.000013  -0.000259   0.002952
     7  C   -0.000010   0.000163   0.015646  -0.002115   0.006858  -0.018268
     8  C   -0.000004  -0.000161  -0.040536   0.008638   0.000555   0.001936
     9  C    0.000035   0.000819  -0.004288  -0.000142   0.000087  -0.000474
    10  C   -0.000239  -0.007298  -0.000743   0.000043  -0.000018   0.000157
    11  C    0.009700  -0.060843   0.000138  -0.000001   0.000001   0.000250
    12  C   -0.002383   0.017753  -0.000056  -0.000007   0.000003  -0.000119
    13  C    0.010239  -0.002759  -0.000007   0.000000  -0.000001   0.000653
    14  C   -0.045277   0.007552   0.000001  -0.000000   0.000000  -0.000043
    15  C    0.422595  -0.034556  -0.000001   0.000000  -0.000000   0.000004
    16  C   -0.044956   0.416241   0.000011  -0.000000   0.000000  -0.000008
    17  C   -0.000000  -0.000009   0.400895  -0.040522   0.004054   0.001316
    18  C    0.000000  -0.000001  -0.035142   0.416697  -0.033022   0.000054
    19  C   -0.000000   0.000001   0.005662  -0.040034   0.402695  -0.010835
    20  C    0.000000   0.000001  -0.002192   0.008088  -0.030345   0.377291
    21  H   -0.000000   0.000000  -0.000000   0.000000   0.000000  -0.000000
    22  H    0.000000  -0.000000  -0.000000   0.000000   0.000000  -0.000000
    23  H   -0.000000   0.000000   0.000000  -0.000000   0.000000  -0.000000
    24  H   -0.000001   0.000000  -0.000000  -0.000000   0.000000  -0.000011
    25  H   -0.000000   0.000000   0.000000  -0.000000  -0.000000  -0.000012
    26  H    0.000000  -0.000000  -0.000000   0.000000   0.000000  -0.000094
    27  H   -0.000000   0.000000   0.000000   0.000001   0.000110  -0.010980
    28  H    0.000001  -0.000000   0.000000   0.000000  -0.000016   0.000279
    29  H    0.000003  -0.000003   0.000000   0.000000  -0.000001  -0.000384
    30  H    0.000000  -0.000001   0.000024  -0.000003  -0.000036   0.001403
    31  H   -0.000002   0.000022  -0.000102   0.000012  -0.000002  -0.000013
    32  H   -0.000001  -0.000030   0.002525  -0.000051   0.000000   0.000006
    33  H   -0.000050   0.001252  -0.000109  -0.000001   0.000000  -0.000003
    34  H   -0.000017   0.000553   0.000497   0.000011  -0.000005  -0.000010
    35  H   -0.000216  -0.000011  -0.000000   0.000000  -0.000000   0.000051
    36  H   -0.004148  -0.000374  -0.000000   0.000000  -0.000000  -0.000001
    37  H    0.524679  -0.004747  -0.000000   0.000000   0.000000   0.000000
    38  H   -0.004747   0.533112   0.000000  -0.000000   0.000000   0.000000
    39  H   -0.000000   0.000000   0.525274  -0.003977  -0.000350   0.000062
    40  H    0.000000  -0.000000  -0.003977   0.517415  -0.004015  -0.000213
    41  H    0.000000   0.000000  -0.000350  -0.004015   0.516945  -0.003165
    42  H    0.000000   0.000000   0.000062  -0.000213  -0.003165   0.474514
 Mulliken charges:
               1
     1  C   -0.327103
     2  N   -0.371575
     3  C   -0.205960
     4  C   -0.372030
     5  C   -0.266923
     6  N   -0.175967
     7  C    0.070986
     8  C    0.083052
     9  C   -0.389244
    10  C   -0.312335
    11  C    0.071682
    12  C    0.141899
    13  C   -0.100958
    14  C   -0.202203
    15  C   -0.163731
    16  C   -0.198311
    17  C   -0.146535
    18  C   -0.152916
    19  C   -0.164480
    20  C   -0.189715
    21  H    0.141664
    22  H    0.126688
    23  H    0.145112
    24  H    0.219687
    25  H    0.155145
    26  H    0.136641
    27  H    0.142187
    28  H    0.203185
    29  H    0.200812
    30  H    0.178566
    31  H    0.178926
    32  H    0.150265
    33  H    0.147957
    34  H    0.171157
    35  H    0.066676
    36  H    0.133401
    37  H    0.134776
    38  H    0.133492
    39  H    0.137132
    40  H    0.140170
    41  H    0.139670
    42  H    0.189060
 Sum of Mulliken charges =   0.00000
 Mulliken charges with hydrogens summed into heavy atoms:
               1
     1  C    0.086360
     2  N   -0.151888
     3  C    0.085826
     4  C   -0.026659
     5  C    0.112455
     6  N   -0.175967
     7  C    0.070986
     8  C    0.083052
     9  C   -0.060054
    10  C    0.006779
    11  C    0.071682
    12  C    0.141899
    13  C   -0.034281
    14  C   -0.068802
    15  C   -0.028955
    16  C   -0.064820
    17  C   -0.009403
    18  C   -0.012746
    19  C   -0.024810
    20  C   -0.000655
 Electronic spatial extent (au):  <R**2>=           6181.7880
 Charge=              0.0000 electrons
 Dipole moment (field-independent basis, Debye):
    X=             -1.0357    Y=             -1.4905    Z=              0.0190  Tot=              1.8151
 Quadrupole moment (field-independent basis, Debye-Ang):
   XX=           -106.7031   YY=           -117.4955   ZZ=           -122.7599
   XY=              4.1318   XZ=              4.6344   YZ=              2.4849
 Traceless Quadrupole moment (field-independent basis, Debye-Ang):
   XX=              8.9497   YY=             -1.8426   ZZ=             -7.1070
   XY=              4.1318   XZ=              4.6344   YZ=              2.4849
 Octapole moment (field-independent basis, Debye-Ang**2):
  XXX=            -30.7547  YYY=              3.7516  ZZZ=              9.4302  XYY=              0.2316
  XXY=             -8.2870  XXZ=              0.2016  XZZ=            -11.1620  YZZ=            -12.2025
  YYZ=            -14.2614  XYZ=             13.8198
 Hexadecapole moment (field-independent basis, Debye-Ang**3):
 XXXX=          -4638.3677 YYYY=          -3001.8859 ZZZZ=           -525.7605 XXXY=            -24.2702
 XXXZ=             66.1396 YYYX=             10.6334 YYYZ=             12.3994 ZZZX=              3.2022
 ZZZY=             19.5066 XXYY=          -1293.8863 XXZZ=           -912.1844 YYZZ=           -614.7095
 XXYZ=             12.3742 YYXZ=            -11.0708 ZZXY=             17.2644
 N-N= 1.527364293436D+03 E-N=-4.930576500916D+03  KE= 8.040957274983D+02
 Unable to Open any file for archive entry.
 1\1\GINC-NOTCH123\SP\RM062X\def2TZVP\C18H22N2\U6032257\23-Sep-2022\0\\
 # M062X/def2tzvp int=(grid=ultrafine) nmr=giao guess=read geom=check\\
 SecN5.xyz\\0,1\C,0,-2.1318373398,-2.047045424,4.1664206617\N,0,-1.3225
 748701,-2.2962627094,2.9800954759\C,0,0.1147704891,-2.2207453247,3.227
 4174466\C,0,0.8965209986,-2.3078568967,1.915008199\C,0,0.754279811,-1.
 0128095602,1.0827259484\N,0,0.9230048921,-1.1084217558,-0.3696399153\C
 ,0,2.2599813202,-1.1274826157,-0.8591652318\C,0,2.6911760739,-0.163017
 6416,-1.7862977942\C,0,1.6777307168,0.7608468713,-2.391906533\C,0,0.71
 46968789,-0.0464973617,-3.2760529523\C,0,-0.3173272937,-0.8743688131,-
 2.5306042733\C,0,-0.2167824164,-1.3079462925,-1.1835822865\C,0,-1.3390
 06288,-1.9411407899,-0.606317716\C,0,-2.497591722,-2.1906826397,-1.330
 4420693\C,0,-2.5769016588,-1.8236013128,-2.671235826\C,0,-1.4918356808
 ,-1.1655586609,-3.2377916219\C,0,4.0261337737,-0.1559578433,-2.1967199
 719\C,0,4.9449977016,-1.0729296159,-1.6886775284\C,0,4.5152089155,-2.0
 346015594,-0.7766130124\C,0,3.1809055388,-2.0670598696,-0.3746293091\H
 ,0,-3.1893543449,-2.1869820732,3.9254729998\H,0,-1.8851002618,-2.69318
 67132,5.027909084\H,0,-1.9975194975,-1.0075630878,4.4847189188\H,0,-1.
 5398766382,-3.2207146687,2.6147104664\H,0,0.3181586465,-1.2532138289,3
 .7072326609\H,0,0.4689410763,-2.9928767653,3.9348749557\H,0,1.94940386
 48,-2.4957225429,2.1443476166\H,0,0.543950291,-3.1685399854,1.33402664
 34\H,0,-0.2378707776,-0.5949182553,1.2685722107\H,0,1.4853790799,-0.28
 20766369,1.447348229\H,0,1.1100776008,1.2803288062,-1.61124269\H,0,2.1
 804018501,1.520745867,-2.9980346163\H,0,0.1686474057,0.638286982,-3.93
 46569064\H,0,1.3159387623,-0.6868259958,-3.9355095113\H,0,-1.314054432
 7,-2.2289561753,0.4355530012\H,0,-3.3338226615,-2.6806210076,-0.840000
 9558\H,0,-3.4700789621,-2.0193118705,-3.2556348906\H,0,-1.5558040837,-
 0.8281641613,-4.26966757\H,0,4.3467322383,0.5899843324,-2.9192888702\H
 ,0,5.981482268,-1.0424442338,-2.0098955123\H,0,5.2108696477,-2.7720084
 423,-0.3876845136\H,0,2.8449490879,-2.8428797278,0.30015756\\Version=E
 S64L-G16RevC.01\State=1-A\HF=-808.5921551\RMSD=4.352e-09\Dipole=0.1650
 057,-0.1496893,0.6784804\Quadrupole=-1.0708095,-2.4199161,3.4907256,2.
 0713142,-2.8486422,-6.3053464\PG=C01 [X(C18H22N2)]\\@
 The archive entry for this job was punched.


 ... THE UNIVERSE IS NOT ONLY QUEERER THAN WE SUPPOSE,
 BUT QUEERER THAN WE CAN SUPPOSE ... 

                                   -- J. B. S. HALDANE
 Job cpu time:       0 days  2 hours 49 minutes 36.7 seconds.
 Elapsed time:       0 days  0 hours  5 minutes  3.2 seconds.
 File lengths (MBytes):  RWF=    318 Int=      0 D2E=      0 Chk=     53 Scr=      1
 Normal termination of Gaussian 16 at Fri Sep 23 16:52:52 2022.
