 Entering Gaussian System, Link 0=/uufs/chpc.utah.edu/sys/installdir/gaussian16/C01/AVX2/g16/g16
 Input=SecN5_clust-6.com
 Output=SecN5_clust-6.log
 Initial command:
 /uufs/chpc.utah.edu/sys/installdir/gaussian16/C01/AVX2/g16/l1.exe "/scratch/local/u6032257/5771830/notchpeak.peaks/Gau-964374.inp" -scrdir="/scratch/local/u6032257/5771830/notchpeak.peaks/"
 Entering Link 1 = /uufs/chpc.utah.edu/sys/installdir/gaussian16/C01/AVX2/g16/l1.exe PID=    964376.
  
 Copyright (c) 1988-2019, Gaussian, Inc.  All Rights Reserved.
  
 This is part of the Gaussian(R) 16 program.  It is based on
 the Gaussian(R) 09 system (copyright 2009, Gaussian, Inc.),
 the Gaussian(R) 03 system (copyright 2003, Gaussian, Inc.),
 the Gaussian(R) 98 system (copyright 1998, Gaussian, Inc.),
 the Gaussian(R) 94 system (copyright 1995, Gaussian, Inc.),
 the Gaussian 92(TM) system (copyright 1992, Gaussian, Inc.),
 the Gaussian 90(TM) system (copyright 1990, Gaussian, Inc.),
 the Gaussian 88(TM) system (copyright 1988, Gaussian, Inc.),
 the Gaussian 86(TM) system (copyright 1986, Carnegie Mellon
 University), and the Gaussian 82(TM) system (copyright 1983,
 Carnegie Mellon University). Gaussian is a federally registered
 trademark of Gaussian, Inc.
  
 This software contains proprietary and confidential information,
 including trade secrets, belonging to Gaussian, Inc.
  
 This software is provided under written license and may be
 used, copied, transmitted, or stored only in accord with that
 written license.
  
 The following legend is applicable only to US Government
 contracts under FAR:
  
                    RESTRICTED RIGHTS LEGEND
  
 Use, reproduction and disclosure by the US Government is
 subject to restrictions as set forth in subparagraphs (a)
 and (c) of the Commercial Computer Software - Restricted
 Rights clause in FAR 52.227-19.
  
 Gaussian, Inc.
 340 Quinnipiac St., Bldg. 40, Wallingford CT 06492
  
  
 ---------------------------------------------------------------
 Warning -- This program may not be used in any manner that
 competes with the business of Gaussian, Inc. or will provide
 assistance to any competitor of Gaussian, Inc.  The licensee
 of this program is prohibited from giving any competitor of
 Gaussian, Inc. access to this program.  By using this program,
 the user acknowledges that Gaussian, Inc. is engaged in the
 business of creating and licensing software in the field of
 computational chemistry and represents and warrants to the
 licensee that it is not a competitor of Gaussian, Inc. and that
 it will not use this program in any manner prohibited above.
 ---------------------------------------------------------------
  

 Cite this work as:
 Gaussian 16, Revision C.01,
 M. J. Frisch, G. W. Trucks, H. B. Schlegel, G. E. Scuseria, 
 M. A. Robb, J. R. Cheeseman, G. Scalmani, V. Barone, 
 G. A. Petersson, H. Nakatsuji, X. Li, M. Caricato, A. V. Marenich, 
 J. Bloino, B. G. Janesko, R. Gomperts, B. Mennucci, H. P. Hratchian, 
 J. V. Ortiz, A. F. Izmaylov, J. L. Sonnenberg, D. Williams-Young, 
 F. Ding, F. Lipparini, F. Egidi, J. Goings, B. Peng, A. Petrone, 
 T. Henderson, D. Ranasinghe, V. G. Zakrzewski, J. Gao, N. Rega, 
 G. Zheng, W. Liang, M. Hada, M. Ehara, K. Toyota, R. Fukuda, 
 J. Hasegawa, M. Ishida, T. Nakajima, Y. Honda, O. Kitao, H. Nakai, 
 T. Vreven, K. Throssell, J. A. Montgomery, Jr., J. E. Peralta, 
 F. Ogliaro, M. J. Bearpark, J. J. Heyd, E. N. Brothers, K. N. Kudin, 
 V. N. Staroverov, T. A. Keith, R. Kobayashi, J. Normand, 
 K. Raghavachari, A. P. Rendell, J. C. Burant, S. S. Iyengar, 
 J. Tomasi, M. Cossi, J. M. Millam, M. Klene, C. Adamo, R. Cammi, 
 J. W. Ochterski, R. L. Martin, K. Morokuma, O. Farkas, 
 J. B. Foresman, and D. J. Fox, Gaussian, Inc., Wallingford CT, 2019.
 
 ******************************************
 Gaussian 16:  ES64L-G16RevC.01  3-Jul-2019
                23-Sep-2022 
 ******************************************
 %NProcShared=64
 Will use up to   64 processors via shared memory.
 %mem=16GB
 %chk=SecN5_clust-6.chk
 ----------------------------------------------------------------------
 # B3LYP/6-31G(d,p) empiricaldispersion=GD3BJ int=(grid=ultrafine) opt 
 freq=noraman
 ----------------------------------------------------------------------
 1/18=20,19=15,26=4,38=1/1,3;
 2/9=110,12=2,17=6,18=5,40=1/2;
 3/5=1,6=6,7=101,11=2,25=1,30=1,71=1,74=-5,75=-5,124=41/1,2,3;
 4//1;
 5/5=2,38=5/2;
 6/7=2,8=2,9=2,10=2,28=1/1;
 7//1,2,3,16;
 1/18=20,19=15,26=4/3(2);
 2/9=110/2;
 99//99;
 2/9=110/2;
 3/5=1,6=6,7=101,11=2,25=1,30=1,71=1,74=-5,75=-5,124=41/1,2,3;
 4/5=5,16=3,69=1/1;
 5/5=2,38=5/2;
 7//1,2,3,16;
 1/18=20,19=15,26=4/3(-5);
 2/9=110/2;
 6/7=2,8=2,9=2,10=2,19=2,28=1/1;
 99/9=1/99;
 ---------
 SecN5.xyz
 ---------
 Symbolic Z-matrix:
 Charge =  0 Multiplicity = 1
 C                    -1.9485   -1.3995    3.5932 
 N                    -1.2058   -2.6064    3.2426 
 C                     0.2398   -2.4296    3.3386 
 C                     0.8069   -1.6767    2.1211 
 C                     0.8084   -2.5053    0.8063 
 N                     0.9651   -1.6564   -0.4079 
 C                     2.3096   -1.3068   -0.784 
 C                     2.6692   -0.6077   -1.9754 
 C                     1.6815   -0.2855   -3.0779 
 C                     0.7275   -1.4233   -3.401 
 C                    -0.4604   -1.4081   -2.4734 
 C                    -0.2905   -1.4536   -1.0661 
 C                    -1.4694   -1.2969   -0.3023 
 C                    -2.733    -1.1543   -0.8667 
 C                    -2.8694   -1.152    -2.245 
 C                    -1.7374   -1.2722   -3.0391 
 C                     3.9964   -0.2112   -2.2057 
 C                     5.0117   -0.5139   -1.3133 
 C                     4.7092   -1.228    -0.1694 
 C                     3.394    -1.6072    0.0778 
 H                    -1.7217   -0.5698    2.9222 
 H                    -1.7364   -1.0826    4.6161 
 H                    -3.0209   -1.5879    3.5236 
 H                    -1.5196   -3.4165    3.7643 
 H                     0.5152   -1.9391    4.2752 
 H                     0.6989   -3.4197    3.3717 
 H                     0.3746   -0.6854    1.9874 
 H                     1.8375   -1.4638    2.3931 
 H                     1.5747   -3.28      0.8383 
 H                    -0.0911   -3.1248    0.7663 
 H                     1.1427    0.6287   -2.8214 
 H                     2.223    -0.0345   -3.9915 
 H                     0.3915   -1.3179   -4.4337 
 H                     1.2187   -2.3974   -3.3661 
 H                    -1.4226   -1.303     0.7728 
 H                    -3.5996   -1.0539   -0.2301 
 H                    -3.845    -1.0442   -2.697 
 H                    -1.8565   -1.2403   -4.1125 
 H                     4.255     0.3295   -3.105 
 H                     6.028    -0.2066   -1.5152 
 H                     5.4882   -1.4839    0.5338 
 H                     3.2588   -2.1498    0.9936 
 

 GradGradGradGradGradGradGradGradGradGradGradGradGradGradGradGradGradGrad
 Berny optimization.
 Initialization pass.
                           ----------------------------
                           !    Initial Parameters    !
                           ! (Angstroms and Degrees)  !
 --------------------------                            --------------------------
 ! Name  Definition              Value          Derivative Info.                !
 --------------------------------------------------------------------------------
 ! R1    R(1,2)                  1.4598         estimate D2E/DX2                !
 ! R2    R(1,21)                 1.0909         estimate D2E/DX2                !
 ! R3    R(1,22)                 1.0917         estimate D2E/DX2                !
 ! R4    R(1,23)                 1.091          estimate D2E/DX2                !
 ! R5    R(2,3)                  1.4595         estimate D2E/DX2                !
 ! R6    R(2,24)                 1.0134         estimate D2E/DX2                !
 ! R7    R(3,4)                  1.5397         estimate D2E/DX2                !
 ! R8    R(3,25)                 1.0925         estimate D2E/DX2                !
 ! R9    R(3,26)                 1.0919         estimate D2E/DX2                !
 ! R10   R(4,5)                  1.5541         estimate D2E/DX2                !
 ! R11   R(4,27)                 1.0897         estimate D2E/DX2                !
 ! R12   R(4,28)                 1.0869         estimate D2E/DX2                !
 ! R13   R(5,6)                  1.4898         estimate D2E/DX2                !
 ! R14   R(5,29)                 1.0901         estimate D2E/DX2                !
 ! R15   R(5,30)                 1.0929         estimate D2E/DX2                !
 ! R16   R(6,7)                  1.4392         estimate D2E/DX2                !
 ! R17   R(6,12)                 1.4321         estimate D2E/DX2                !
 ! R18   R(7,8)                  1.4274         estimate D2E/DX2                !
 ! R19   R(7,20)                 1.4173         estimate D2E/DX2                !
 ! R20   R(8,9)                  1.5149         estimate D2E/DX2                !
 ! R21   R(8,17)                 1.4042         estimate D2E/DX2                !
 ! R22   R(9,10)                 1.5196         estimate D2E/DX2                !
 ! R23   R(9,31)                 1.0917         estimate D2E/DX2                !
 ! R24   R(9,32)                 1.0913         estimate D2E/DX2                !
 ! R25   R(10,11)                1.5072         estimate D2E/DX2                !
 ! R26   R(10,33)                1.0911         estimate D2E/DX2                !
 ! R27   R(10,34)                1.0915         estimate D2E/DX2                !
 ! R28   R(11,12)                1.4182         estimate D2E/DX2                !
 ! R29   R(11,16)                1.4033         estimate D2E/DX2                !
 ! R30   R(12,13)                1.4134         estimate D2E/DX2                !
 ! R31   R(13,14)                1.3912         estimate D2E/DX2                !
 ! R32   R(13,35)                1.0761         estimate D2E/DX2                !
 ! R33   R(14,15)                1.385          estimate D2E/DX2                !
 ! R34   R(14,36)                1.08           estimate D2E/DX2                !
 ! R35   R(15,16)                1.388          estimate D2E/DX2                !
 ! R36   R(15,37)                1.0806         estimate D2E/DX2                !
 ! R37   R(16,38)                1.0805         estimate D2E/DX2                !
 ! R38   R(17,18)                1.3852         estimate D2E/DX2                !
 ! R39   R(17,39)                1.0807         estimate D2E/DX2                !
 ! R40   R(18,19)                1.382          estimate D2E/DX2                !
 ! R41   R(18,40)                1.0808         estimate D2E/DX2                !
 ! R42   R(19,20)                1.3909         estimate D2E/DX2                !
 ! R43   R(19,41)                1.0802         estimate D2E/DX2                !
 ! R44   R(20,42)                1.073          estimate D2E/DX2                !
 ! A1    A(2,1,21)             112.0422         estimate D2E/DX2                !
 ! A2    A(2,1,22)             111.4803         estimate D2E/DX2                !
 ! A3    A(2,1,23)             109.9976         estimate D2E/DX2                !
 ! A4    A(21,1,22)            108.3706         estimate D2E/DX2                !
 ! A5    A(21,1,23)            107.244          estimate D2E/DX2                !
 ! A6    A(22,1,23)            107.5099         estimate D2E/DX2                !
 ! A7    A(1,2,3)              112.8273         estimate D2E/DX2                !
 ! A8    A(1,2,24)             112.3165         estimate D2E/DX2                !
 ! A9    A(3,2,24)             111.696          estimate D2E/DX2                !
 ! A10   A(2,3,4)              111.8402         estimate D2E/DX2                !
 ! A11   A(2,3,25)             111.1269         estimate D2E/DX2                !
 ! A12   A(2,3,26)             107.9754         estimate D2E/DX2                !
 ! A13   A(4,3,25)             111.4377         estimate D2E/DX2                !
 ! A14   A(4,3,26)             108.2108         estimate D2E/DX2                !
 ! A15   A(25,3,26)            105.9698         estimate D2E/DX2                !
 ! A16   A(3,4,5)              114.1174         estimate D2E/DX2                !
 ! A17   A(3,4,27)             113.3116         estimate D2E/DX2                !
 ! A18   A(3,4,28)             104.3074         estimate D2E/DX2                !
 ! A19   A(5,4,27)             112.4331         estimate D2E/DX2                !
 ! A20   A(5,4,28)             108.3744         estimate D2E/DX2                !
 ! A21   A(27,4,28)            103.2189         estimate D2E/DX2                !
 ! A22   A(4,5,6)              112.694          estimate D2E/DX2                !
 ! A23   A(4,5,29)             110.7772         estimate D2E/DX2                !
 ! A24   A(4,5,30)             109.4134         estimate D2E/DX2                !
 ! A25   A(6,5,29)             110.7886         estimate D2E/DX2                !
 ! A26   A(6,5,30)             112.3167         estimate D2E/DX2                !
 ! A27   A(29,5,30)            100.1831         estimate D2E/DX2                !
 ! A28   A(5,6,7)              116.7215         estimate D2E/DX2                !
 ! A29   A(5,6,12)             111.2882         estimate D2E/DX2                !
 ! A30   A(7,6,12)             131.6481         estimate D2E/DX2                !
 ! A31   A(6,7,8)              124.9199         estimate D2E/DX2                !
 ! A32   A(6,7,20)             120.289          estimate D2E/DX2                !
 ! A33   A(8,7,20)             114.744          estimate D2E/DX2                !
 ! A34   A(7,8,9)              123.1863         estimate D2E/DX2                !
 ! A35   A(7,8,17)             120.8843         estimate D2E/DX2                !
 ! A36   A(9,8,17)             115.9021         estimate D2E/DX2                !
 ! A37   A(8,9,10)             113.8798         estimate D2E/DX2                !
 ! A38   A(8,9,31)             109.2017         estimate D2E/DX2                !
 ! A39   A(8,9,32)             109.553          estimate D2E/DX2                !
 ! A40   A(10,9,31)            111.5382         estimate D2E/DX2                !
 ! A41   A(10,9,32)            107.8025         estimate D2E/DX2                !
 ! A42   A(31,9,32)            104.4175         estimate D2E/DX2                !
 ! A43   A(9,10,11)            110.8784         estimate D2E/DX2                !
 ! A44   A(9,10,33)            108.799          estimate D2E/DX2                !
 ! A45   A(9,10,34)            112.2657         estimate D2E/DX2                !
 ! A46   A(11,10,33)           109.8048         estimate D2E/DX2                !
 ! A47   A(11,10,34)           110.1207         estimate D2E/DX2                !
 ! A48   A(33,10,34)           104.7771         estimate D2E/DX2                !
 ! A49   A(10,11,12)           121.0603         estimate D2E/DX2                !
 ! A50   A(10,11,16)           118.0397         estimate D2E/DX2                !
 ! A51   A(12,11,16)           120.8061         estimate D2E/DX2                !
 ! A52   A(6,12,11)            124.4464         estimate D2E/DX2                !
 ! A53   A(6,12,13)            119.9085         estimate D2E/DX2                !
 ! A54   A(11,12,13)           115.6419         estimate D2E/DX2                !
 ! A55   A(12,13,14)           123.3456         estimate D2E/DX2                !
 ! A56   A(12,13,35)           120.1967         estimate D2E/DX2                !
 ! A57   A(14,13,35)           116.4469         estimate D2E/DX2                !
 ! A58   A(13,14,15)           119.5592         estimate D2E/DX2                !
 ! A59   A(13,14,36)           119.9473         estimate D2E/DX2                !
 ! A60   A(15,14,36)           120.4919         estimate D2E/DX2                !
 ! A61   A(14,15,16)           119.2673         estimate D2E/DX2                !
 ! A62   A(14,15,37)           120.3529         estimate D2E/DX2                !
 ! A63   A(16,15,37)           120.3745         estimate D2E/DX2                !
 ! A64   A(11,16,15)           121.3275         estimate D2E/DX2                !
 ! A65   A(11,16,38)           120.2426         estimate D2E/DX2                !
 ! A66   A(15,16,38)           118.4201         estimate D2E/DX2                !
 ! A67   A(8,17,18)            121.6956         estimate D2E/DX2                !
 ! A68   A(8,17,39)            120.2595         estimate D2E/DX2                !
 ! A69   A(18,17,39)           118.0359         estimate D2E/DX2                !
 ! A70   A(17,18,19)           119.0593         estimate D2E/DX2                !
 ! A71   A(17,18,40)           120.4474         estimate D2E/DX2                !
 ! A72   A(19,18,40)           120.4889         estimate D2E/DX2                !
 ! A73   A(18,19,20)           119.6659         estimate D2E/DX2                !
 ! A74   A(18,19,41)           120.2246         estimate D2E/DX2                !
 ! A75   A(20,19,41)           120.1076         estimate D2E/DX2                !
 ! A76   A(7,20,19)            123.8899         estimate D2E/DX2                !
 ! A77   A(7,20,42)            121.9866         estimate D2E/DX2                !
 ! A78   A(19,20,42)           114.1221         estimate D2E/DX2                !
 ! D1    D(21,1,2,3)            61.8396         estimate D2E/DX2                !
 ! D2    D(21,1,2,24)         -170.8347         estimate D2E/DX2                !
 ! D3    D(22,1,2,3)           -59.8099         estimate D2E/DX2                !
 ! D4    D(22,1,2,24)           67.5158         estimate D2E/DX2                !
 ! D5    D(23,1,2,3)          -178.9719         estimate D2E/DX2                !
 ! D6    D(23,1,2,24)          -51.6462         estimate D2E/DX2                !
 ! D7    D(1,2,3,4)            -78.4496         estimate D2E/DX2                !
 ! D8    D(1,2,3,25)            46.7896         estimate D2E/DX2                !
 ! D9    D(1,2,3,26)           162.6042         estimate D2E/DX2                !
 ! D10   D(24,2,3,4)           153.8977         estimate D2E/DX2                !
 ! D11   D(24,2,3,25)          -80.8631         estimate D2E/DX2                !
 ! D12   D(24,2,3,26)           34.9515         estimate D2E/DX2                !
 ! D13   D(2,3,4,5)            -71.3242         estimate D2E/DX2                !
 ! D14   D(2,3,4,27)            59.0801         estimate D2E/DX2                !
 ! D15   D(2,3,4,28)           170.6024         estimate D2E/DX2                !
 ! D16   D(25,3,4,5)           163.6086         estimate D2E/DX2                !
 ! D17   D(25,3,4,27)          -65.9872         estimate D2E/DX2                !
 ! D18   D(25,3,4,28)           45.5352         estimate D2E/DX2                !
 ! D19   D(26,3,4,5)            47.4826         estimate D2E/DX2                !
 ! D20   D(26,3,4,27)          177.8869         estimate D2E/DX2                !
 ! D21   D(26,3,4,28)          -70.5907         estimate D2E/DX2                !
 ! D22   D(3,4,5,6)            162.7508         estimate D2E/DX2                !
 ! D23   D(3,4,5,29)           -72.49           estimate D2E/DX2                !
 ! D24   D(3,4,5,30)            37.034          estimate D2E/DX2                !
 ! D25   D(27,4,5,6)            31.9145         estimate D2E/DX2                !
 ! D26   D(27,4,5,29)          156.6736         estimate D2E/DX2                !
 ! D27   D(27,4,5,30)          -93.8023         estimate D2E/DX2                !
 ! D28   D(28,4,5,6)           -81.5271         estimate D2E/DX2                !
 ! D29   D(28,4,5,29)           43.2321         estimate D2E/DX2                !
 ! D30   D(28,4,5,30)          152.7561         estimate D2E/DX2                !
 ! D31   D(4,5,6,7)             84.3584         estimate D2E/DX2                !
 ! D32   D(4,5,6,12)          -101.5701         estimate D2E/DX2                !
 ! D33   D(29,5,6,7)           -40.3945         estimate D2E/DX2                !
 ! D34   D(29,5,6,12)          133.6769         estimate D2E/DX2                !
 ! D35   D(30,5,6,7)          -151.5099         estimate D2E/DX2                !
 ! D36   D(30,5,6,12)           22.5616         estimate D2E/DX2                !
 ! D37   D(5,6,7,8)            174.0516         estimate D2E/DX2                !
 ! D38   D(5,6,7,20)            -8.5782         estimate D2E/DX2                !
 ! D39   D(12,6,7,8)             1.4515         estimate D2E/DX2                !
 ! D40   D(12,6,7,20)          178.8217         estimate D2E/DX2                !
 ! D41   D(5,6,12,11)         -142.4318         estimate D2E/DX2                !
 ! D42   D(5,6,12,13)           36.885          estimate D2E/DX2                !
 ! D43   D(7,6,12,11)           30.4762         estimate D2E/DX2                !
 ! D44   D(7,6,12,13)         -150.207          estimate D2E/DX2                !
 ! D45   D(6,7,8,9)             -7.3567         estimate D2E/DX2                !
 ! D46   D(6,7,8,17)           174.6249         estimate D2E/DX2                !
 ! D47   D(20,7,8,9)           175.1435         estimate D2E/DX2                !
 ! D48   D(20,7,8,17)           -2.8748         estimate D2E/DX2                !
 ! D49   D(6,7,20,19)         -175.6908         estimate D2E/DX2                !
 ! D50   D(6,7,20,42)            3.8442         estimate D2E/DX2                !
 ! D51   D(8,7,20,19)            1.9351         estimate D2E/DX2                !
 ! D52   D(8,7,20,42)         -178.5299         estimate D2E/DX2                !
 ! D53   D(7,8,9,10)           -41.9663         estimate D2E/DX2                !
 ! D54   D(7,8,9,31)            83.437          estimate D2E/DX2                !
 ! D55   D(7,8,9,32)          -162.7672         estimate D2E/DX2                !
 ! D56   D(17,8,9,10)          136.1432         estimate D2E/DX2                !
 ! D57   D(17,8,9,31)          -98.4535         estimate D2E/DX2                !
 ! D58   D(17,8,9,32)           15.3423         estimate D2E/DX2                !
 ! D59   D(7,8,17,18)            1.949          estimate D2E/DX2                !
 ! D60   D(7,8,17,39)         -179.1622         estimate D2E/DX2                !
 ! D61   D(9,8,17,18)         -176.2074         estimate D2E/DX2                !
 ! D62   D(9,8,17,39)            2.6813         estimate D2E/DX2                !
 ! D63   D(8,9,10,11)           84.8853         estimate D2E/DX2                !
 ! D64   D(8,9,10,33)         -154.2572         estimate D2E/DX2                !
 ! D65   D(8,9,10,34)          -38.7571         estimate D2E/DX2                !
 ! D66   D(31,9,10,11)         -39.2687         estimate D2E/DX2                !
 ! D67   D(31,9,10,33)          81.5888         estimate D2E/DX2                !
 ! D68   D(31,9,10,34)        -162.911          estimate D2E/DX2                !
 ! D69   D(32,9,10,11)        -153.3401         estimate D2E/DX2                !
 ! D70   D(32,9,10,33)         -32.4826         estimate D2E/DX2                !
 ! D71   D(32,9,10,34)          83.0176         estimate D2E/DX2                !
 ! D72   D(9,10,11,12)         -56.1312         estimate D2E/DX2                !
 ! D73   D(9,10,11,16)         120.3734         estimate D2E/DX2                !
 ! D74   D(33,10,11,12)       -176.392          estimate D2E/DX2                !
 ! D75   D(33,10,11,16)          0.1125         estimate D2E/DX2                !
 ! D76   D(34,10,11,12)         68.7327         estimate D2E/DX2                !
 ! D77   D(34,10,11,16)       -114.7628         estimate D2E/DX2                !
 ! D78   D(10,11,12,6)          -6.8321         estimate D2E/DX2                !
 ! D79   D(10,11,12,13)        173.8248         estimate D2E/DX2                !
 ! D80   D(16,11,12,6)         176.7599         estimate D2E/DX2                !
 ! D81   D(16,11,12,13)         -2.5832         estimate D2E/DX2                !
 ! D82   D(10,11,16,15)       -175.2443         estimate D2E/DX2                !
 ! D83   D(10,11,16,38)          3.5951         estimate D2E/DX2                !
 ! D84   D(12,11,16,15)          1.2696         estimate D2E/DX2                !
 ! D85   D(12,11,16,38)       -179.891          estimate D2E/DX2                !
 ! D86   D(6,12,13,14)        -177.1177         estimate D2E/DX2                !
 ! D87   D(6,12,13,35)           1.6504         estimate D2E/DX2                !
 ! D88   D(11,12,13,14)          2.2574         estimate D2E/DX2                !
 ! D89   D(11,12,13,35)       -178.9746         estimate D2E/DX2                !
 ! D90   D(12,13,14,15)         -0.5221         estimate D2E/DX2                !
 ! D91   D(12,13,14,36)        179.0174         estimate D2E/DX2                !
 ! D92   D(35,13,14,15)       -179.3329         estimate D2E/DX2                !
 ! D93   D(35,13,14,36)          0.2067         estimate D2E/DX2                !
 ! D94   D(13,14,15,16)         -0.9619         estimate D2E/DX2                !
 ! D95   D(13,14,15,37)        179.8696         estimate D2E/DX2                !
 ! D96   D(36,14,15,16)        179.5011         estimate D2E/DX2                !
 ! D97   D(36,14,15,37)          0.3326         estimate D2E/DX2                !
 ! D98   D(14,15,16,11)          0.589          estimate D2E/DX2                !
 ! D99   D(14,15,16,38)       -178.271          estimate D2E/DX2                !
 ! D100  D(37,15,16,11)        179.7573         estimate D2E/DX2                !
 ! D101  D(37,15,16,38)          0.8974         estimate D2E/DX2                !
 ! D102  D(8,17,18,19)           0.1935         estimate D2E/DX2                !
 ! D103  D(8,17,18,40)         179.4304         estimate D2E/DX2                !
 ! D104  D(39,17,18,19)       -178.7191         estimate D2E/DX2                !
 ! D105  D(39,17,18,40)          0.5179         estimate D2E/DX2                !
 ! D106  D(17,18,19,20)         -1.1849         estimate D2E/DX2                !
 ! D107  D(17,18,19,41)        179.3122         estimate D2E/DX2                !
 ! D108  D(40,18,19,20)        179.5785         estimate D2E/DX2                !
 ! D109  D(40,18,19,41)          0.0756         estimate D2E/DX2                !
 ! D110  D(18,19,20,7)           0.0614         estimate D2E/DX2                !
 ! D111  D(18,19,20,42)       -179.5065         estimate D2E/DX2                !
 ! D112  D(41,19,20,7)         179.5649         estimate D2E/DX2                !
 ! D113  D(41,19,20,42)         -0.003          estimate D2E/DX2                !
 --------------------------------------------------------------------------------
 Trust Radius=3.00D-01 FncErr=1.00D-07 GrdErr=1.00D-06 EigMax=2.50D+02 EigMin=1.00D-04
 Number of steps in this run=    245 maximum allowed number of steps=    252.
 GradGradGradGradGradGradGradGradGradGradGradGradGradGradGradGradGradGrad

                          Input orientation:                          
 ---------------------------------------------------------------------
 Center     Atomic      Atomic             Coordinates (Angstroms)
 Number     Number       Type             X           Y           Z
 ---------------------------------------------------------------------
      1          6           0       -1.948500   -1.399500    3.593200
      2          7           0       -1.205800   -2.606400    3.242600
      3          6           0        0.239800   -2.429600    3.338600
      4          6           0        0.806900   -1.676700    2.121100
      5          6           0        0.808400   -2.505300    0.806300
      6          7           0        0.965100   -1.656400   -0.407900
      7          6           0        2.309600   -1.306800   -0.784000
      8          6           0        2.669200   -0.607700   -1.975400
      9          6           0        1.681500   -0.285500   -3.077900
     10          6           0        0.727500   -1.423300   -3.401000
     11          6           0       -0.460400   -1.408100   -2.473400
     12          6           0       -0.290500   -1.453600   -1.066100
     13          6           0       -1.469400   -1.296900   -0.302300
     14          6           0       -2.733000   -1.154300   -0.866700
     15          6           0       -2.869400   -1.152000   -2.245000
     16          6           0       -1.737400   -1.272200   -3.039100
     17          6           0        3.996400   -0.211200   -2.205700
     18          6           0        5.011700   -0.513900   -1.313300
     19          6           0        4.709200   -1.228000   -0.169400
     20          6           0        3.394000   -1.607200    0.077800
     21          1           0       -1.721700   -0.569800    2.922200
     22          1           0       -1.736400   -1.082600    4.616100
     23          1           0       -3.020900   -1.587900    3.523600
     24          1           0       -1.519600   -3.416500    3.764300
     25          1           0        0.515200   -1.939100    4.275200
     26          1           0        0.698900   -3.419700    3.371700
     27          1           0        0.374600   -0.685400    1.987400
     28          1           0        1.837500   -1.463800    2.393100
     29          1           0        1.574700   -3.280000    0.838300
     30          1           0       -0.091100   -3.124800    0.766300
     31          1           0        1.142700    0.628700   -2.821400
     32          1           0        2.223000   -0.034500   -3.991500
     33          1           0        0.391500   -1.317900   -4.433700
     34          1           0        1.218700   -2.397400   -3.366100
     35          1           0       -1.422600   -1.303000    0.772800
     36          1           0       -3.599600   -1.053900   -0.230100
     37          1           0       -3.845000   -1.044200   -2.697000
     38          1           0       -1.856500   -1.240300   -4.112500
     39          1           0        4.255000    0.329500   -3.105000
     40          1           0        6.028000   -0.206600   -1.515200
     41          1           0        5.488200   -1.483900    0.533800
     42          1           0        3.258800   -2.149800    0.993600
 ---------------------------------------------------------------------
                    Distance matrix (angstroms):
                    1          2          3          4          5
     1  C    0.000000
     2  N    1.459839   0.000000
     3  C    2.431992   1.459532   0.000000
     4  C    3.136263   2.484565   1.539730   0.000000
     5  C    4.073095   3.162717   2.596455   1.554117   0.000000
     6  N    4.956194   4.352178   3.893605   2.534025   1.489788
     7  C    6.107363   5.500955   4.747692   3.291586   2.493804
     8  C    7.277321   6.799849   6.120449   4.625174   3.847248
     9  C    7.676032   7.326104   6.917162   5.452519   4.558160
    10  C    7.488683   7.019601   6.831742   5.528481   4.344956
    11  C    6.246451   5.887631   5.942481   4.773639   3.683766
    12  C    4.945803   4.553199   4.542596   3.378210   2.412371
    13  C    3.926192   3.788217   4.178580   3.346439   2.806706
    14  C    4.535005   4.618147   5.305514   4.661624   4.143144
    15  C    5.915564   5.915792   6.517360   5.731782   4.966696
    16  C    6.636880   6.443791   6.776721   5.767560   4.773755
    17  C    8.389346   7.904672   7.054970   5.571517   4.949584
    18  C    8.561683   7.986995   6.934054   5.552256   5.111371
    19  C    7.649284   6.966273   5.807361   4.547050   4.218972
    20  C    6.398709   5.672082   4.610655   3.297422   2.832424
    21  H    1.090908   2.125217   2.734909   2.874162   3.824212
    22  H    1.091667   2.118963   2.711417   3.611974   4.797360
    23  H    1.091046   2.100212   3.372662   4.077615   4.784232
    24  H    2.069183   1.013362   2.061718   3.337606   3.872936
    25  H    2.612683   2.115040   1.092545   2.189541   3.527012
    26  H    3.337514   2.075092   1.091864   2.147956   2.725692
    27  H    2.912958   2.786294   2.210463   1.089695   2.212513
    28  H    3.972175   3.359890   2.092698   1.086944   2.159098
    29  H    4.851669   3.737054   2.959162   2.192182   1.090138
    30  H    3.797099   2.764662   2.685056   2.176897   1.092923
    31  H    7.403797   7.263155   6.936428   5.464059   4.805613
    32  H    8.763122   8.408540   7.962409   6.485834   5.578963
    33  H    8.361422   7.945891   7.852868   6.577743   5.389000
    34  H    7.710954   7.042499   6.775860   5.549626   4.193913
    35  H    2.870634   2.801029   3.258240   2.632154   2.534563
    36  H    4.178899   4.494461   5.419332   5.033216   4.755118
    37  H    6.579481   6.684661   7.418449   6.727133   6.005169
    38  H    7.707893   7.509137   7.831207   6.792784   5.735548
    39  H    9.291864   8.873098   8.078022   6.574675   5.934089
    40  H    9.546901   8.984629   7.874285   6.530219   6.157728
    41  H    8.041863   7.308026   6.025525   4.946844   4.797712
    42  H    5.868291   5.019874   3.832972   2.739871   2.483127
                    6          7          8          9         10
     6  N    0.000000
     7  C    1.439219   0.000000
     8  C    2.541807   1.427406   0.000000
     9  C    3.085692   2.588347   1.514883   0.000000
    10  C    3.011551   3.060278   2.543175   1.519572   0.000000
    11  C    2.521903   3.246111   3.268492   2.492667   1.507242
    12  C    1.432092   2.619475   3.209704   3.049685   2.547352
    13  C    2.463165   3.809590   4.516887   4.319150   3.800564
    14  C    3.760126   5.045583   5.541818   5.013186   4.297685
    15  C    4.281676   5.383356   5.571807   4.706935   3.787826
    16  C    3.791349   4.633021   4.581609   3.558646   2.495904
    17  C    3.809130   2.463101   1.404176   2.474877   3.685598
    18  C    4.301166   2.865343   2.436079   3.775740   4.851790
    19  C    3.776069   2.478310   2.794281   4.302865   5.131795
    20  C    2.477475   1.417344   2.395823   3.825963   4.387037
    21  H    4.414653   5.525438   6.577836   6.903897   6.834464
    22  H    5.733055   6.751404   7.942463   8.456657   8.394091
    23  H    5.599070   6.859203   7.973521   8.209057   7.875765
    24  H    5.165166   6.308775   7.640652   8.177157   7.769416
    25  H    4.713147   5.405107   6.744060   7.626449   7.696439
    26  H    4.179170   4.932397   6.354597   7.237821   7.060871
    27  H    2.651225   3.436717   4.579848   5.246444   5.450127
    28  H    2.940030   3.215819   4.528623   5.598622   5.899605
    29  H    2.135580   2.658092   4.031876   4.931030   4.704970
    30  H    2.156502   3.387021   4.633785   5.097216   4.575106
    31  H    3.328394   3.042830   2.138832   1.091723   2.172333
    32  H    4.129777   3.451710   2.142968   1.091278   2.124612
    33  H    4.080523   4.123050   3.425717   2.137322   1.091089
    34  H    3.060121   3.007775   2.690915   2.181138   1.091497
    35  H    2.687016   4.043879   4.977838   5.049617   4.696595
    36  H    4.607722   5.940489   6.522501   6.049002   5.377254
    37  H    5.362073   6.450398   6.568565   5.591325   4.641884
    38  H    4.675321   5.332891   5.044734   3.807819   2.686406
    39  H    4.694847   3.442252   2.160810   2.646103   3.950086
    40  H    5.381542   3.946086   3.413825   4.619558   5.756032
    41  H    4.623309   3.445498   3.874348   5.382518   6.176616
    42  H    2.732893   2.184374   3.397155   4.747694   5.123260
                   11         12         13         14         15
    11  C    0.000000
    12  C    1.418249   0.000000
    13  C    2.396690   1.413418   0.000000
    14  C    2.794747   2.468835   1.391247   0.000000
    15  C    2.433318   2.851577   2.398975   1.385035   0.000000
    16  C    1.403287   2.453397   2.750002   2.392581   1.387972
    17  C    4.622478   4.606491   5.888688   6.925834   6.930069
    18  C    5.664742   5.390498   6.606048   7.783954   7.961594
    19  C    5.662651   5.084483   6.180413   7.475159   7.858058
    20  C    4.626517   3.861041   4.888090   6.215893   6.695729
    21  H    5.604117   4.328507   3.315076   3.964862   5.325047
    22  H    7.210765   5.875003   4.930301   5.573100   6.954365
    23  H    6.523228   5.342141   4.138761   4.421044   5.787029
    24  H    6.638108   5.356905   4.586116   5.294908   6.562134
    25  H    6.839398   5.423500   5.030364   6.132361   7.388373
    26  H    6.289333   4.953638   4.765090   5.905422   7.030117
    27  H    4.595460   3.218129   3.002831   4.245342   5.352986
    28  H    5.382032   4.061349   4.269499   5.622416   6.615444
    29  H    4.314278   3.231323   3.807913   5.097245   5.812499
    30  H    3.684983   2.488043   2.526427   3.678205   4.547397
    31  H    2.615261   3.077517   4.108146   4.692653   4.427197
    32  H    3.375210   4.109683   5.370072   5.964919   5.498328
    33  H    2.139310   3.438643   4.531209   4.744761   3.930827
    34  H    2.143596   2.908340   4.221830   4.838205   4.418195
    35  H    3.387431   2.164690   1.076135   2.104096   3.350097
    36  H    3.874588   3.436393   2.145230   1.079970   2.145376
    37  H    3.411442   3.932164   3.382591   2.144450   1.080611
    38  H    2.159607   3.431968   3.830232   3.363163   2.126339
    39  H    5.064896   5.291326   6.577922   7.486240   7.327450
    40  H    6.667915   6.456016   7.672737   8.835938   8.977200
    41  H    6.665946   5.996163   7.010152   8.346147   8.813703
    42  H    5.138352   4.162282   4.976210   6.352433   7.002783
                   16         17         18         19         20
    16  C    0.000000
    17  C    5.890394   0.000000
    18  C    7.007407   1.385222   0.000000
    19  C    7.056613   2.385054   1.382010   0.000000
    20  C    6.013199   2.743369   2.397377   1.390918   0.000000
    21  H    6.002559   7.688993   7.954952   7.165730   5.944510
    22  H    7.657548   8.953284   9.001003   8.029191   6.869671
    23  H    6.694481   9.163115   9.437783   8.574510   7.281817
    24  H    7.136646   8.737340   8.767268   7.685147   6.403695
    25  H    7.682314   7.556881   7.313073   6.152217   5.100570
    26  H    7.186492   7.230171   6.999510   5.781474   4.625851
    27  H    5.483665   5.560970   5.694447   4.871854   3.689589
    28  H    6.505799   5.232477   4.971444   3.855991   2.793541
    29  H    5.480465   4.954604   4.908529   3.879595   2.585821
    30  H    4.541310   5.833481   6.097549   5.245595   3.863038
    31  H    3.457715   3.037782   4.306862   4.816675   4.298018
    32  H    4.257198   2.522945   3.896078   4.713182   4.517060
    33  H    2.545430   4.379963   5.632900   6.069174   5.427000
    34  H    3.179863   3.720432   4.706210   4.875446   4.149312
    35  H    3.825001   6.279256   6.809898   6.204219   4.875982
    36  H    3.377266   7.893817   8.695942   8.310845   7.022207
    37  H    2.147323   7.900811   8.979810   8.921708   7.773005
    38  H    1.080458   6.241103   7.452204   7.658760   6.727628
    39  H    6.203116   1.080727   2.119931   3.354080   3.823917
    40  H    7.984937   2.145742   1.080769   2.143285   3.381906
    41  H    8.063481   3.368990   2.140031   1.080193   2.146815
    42  H    6.480345   3.812839   3.327253   2.075077   1.073025
                   21         22         23         24         25
    21  H    0.000000
    22  H    1.769881   0.000000
    23  H    1.756739   1.760348   0.000000
    24  H    2.975513   2.493924   2.378154   0.000000
    25  H    2.951155   2.433004   3.632113   2.565958   0.000000
    26  H    3.766070   3.597395   4.149154   2.252973   1.744200
    27  H    2.298192   3.394724   3.834558   3.768856   2.612577
    28  H    3.707706   4.226086   4.989738   4.118658   2.348763
    29  H    4.749113   5.483040   5.585121   4.260845   3.838337
    30  H    3.719514   4.658171   4.306796   3.333722   3.753114
    31  H    6.529175   8.156848   7.906194   8.174529   7.572918
    32  H    7.977873   9.532373   9.294529   9.251887   8.653462
    33  H    7.689898   9.299581   8.662332   8.675461   8.731903
    34  H    7.178356   8.612597   8.130035   7.705807   7.687289
    35  H    2.290625   3.862383   3.194156   3.664064   4.052962
    36  H    3.701062   5.192109   3.835403   5.085618   6.165459
    37  H    6.025684   7.611117   6.298461   7.265238   8.271866
    38  H    7.067867   8.730851   7.732184   8.178834   8.744529
    39  H    8.535621   9.874527  10.027636   9.724495   8.579044
    40  H    8.937577   9.932075  10.448928   9.754119   8.180541
    41  H    7.650013   8.307891   9.019673   7.954894   6.239873
    42  H    5.569675   6.262064   6.793472   5.666958   4.282597
                   26         27         28         29         30
    26  H    0.000000
    27  H    3.081859   0.000000
    28  H    2.465687   1.706041   0.000000
    29  H    2.684149   3.081010   2.405213   0.000000
    30  H    2.738462   2.767424   3.020744   1.674563   0.000000
    31  H    7.412219   5.043946   5.661476   5.371961   5.336911
    32  H    8.246161   6.291860   6.553978   5.854958   6.127126
    33  H    8.089272   6.452199   6.979785   5.748372   5.526101
    34  H    6.834708   5.683609   5.867104   4.310765   4.395613
    35  H    3.966795   2.255352   3.644102   3.591187   2.256522
    36  H    6.086631   4.565891   6.050723   5.733270   4.194164
    37  H    7.944756   6.314853   7.640418   6.846188   5.514989
    38  H    8.203237   6.518781   7.484545   6.359554   5.520024
    39  H    8.285529   6.482288   6.268121   5.980143   6.768141
    40  H    7.912339   6.667712   5.866485   5.900562   7.152938
    41  H    5.893928   5.375822   4.096951   4.316732   5.820240
    42  H    3.717673   3.383891   2.109334   2.034125   3.496301
                   31         32         33         34         35
    31  H    0.000000
    32  H    1.725113   0.000000
    33  H    2.636866   2.279704   0.000000
    34  H    3.075672   2.642544   1.728974   0.000000
    35  H    4.819803   6.131725   5.513513   5.030375   0.000000
    36  H    5.659981   7.006424   5.802485   5.903855   2.409811
    37  H    5.262245   6.286163   4.586826   5.283929   4.239636
    38  H    3.762353   4.255692   2.272157   3.369399   4.904932
    39  H    3.139484   2.246642   4.405224   4.089410   7.066649
    40  H    5.125431   4.543094   6.443816   5.599536   7.870736
    41  H    5.882501   5.765469   7.118986   5.854258   6.917297
    42  H    5.172250   5.513492   6.194276   4.819782   4.762492
                   36         37         38         39         40
    36  H    0.000000
    37  H    2.479095   0.000000
    38  H    4.259832   2.448720   0.000000
    39  H    8.477829   8.225784   6.389817   0.000000
    40  H    9.749876   9.978695   8.365396   2.440983   0.000000
    41  H    9.129981   9.886356   8.694370   4.248537   2.474122
    42  H    7.052382   8.081266   7.284624   4.892634   4.211718
                   41         42
    41  H    0.000000
    42  H    2.371722   0.000000
 Stoichiometry    C18H22N2
 Framework group  C1[X(C18H22N2)]
 Deg. of freedom   120
 Full point group                 C1      NOp   1
 Largest Abelian subgroup         C1      NOp   1
 Largest concise Abelian subgroup C1      NOp   1
                         Standard orientation:                         
 ---------------------------------------------------------------------
 Center     Atomic      Atomic             Coordinates (Angstroms)
 Number     Number       Type             X           Y           Z
 ---------------------------------------------------------------------
      1          6           0        4.505401   -1.212741   -0.922061
      2          7           0        3.938711   -1.565992    0.376095
      3          6           0        2.888636   -2.575108    0.279859
      4          6           0        1.552072   -1.968421   -0.185215
      5          6           0        0.854934   -1.076419    0.879496
      6          7           0       -0.189742   -0.191082    0.292727
      7          6           0       -1.497163   -0.764846    0.111627
      8          6           0       -2.652440   -0.045848   -0.319492
      9          6           0       -2.677358    1.459470   -0.487620
     10          6           0       -1.970590    2.214573    0.625662
     11          6           0       -0.491298    2.311986    0.353656
     12          6           0        0.291229    1.148946    0.138200
     13          6           0        1.633901    1.376566   -0.240178
     14          6           0        2.191558    2.646033   -0.354372
     15          6           0        1.410194    3.760970   -0.100000
     16          6           0        0.076723    3.590596    0.245388
     17          6           0       -3.861811   -0.711778   -0.575748
     18          6           0       -3.995544   -2.077187   -0.384400
     19          6           0       -2.910722   -2.800155    0.074325
     20          6           0       -1.702545   -2.152960    0.311178
     21          1           0        3.759681   -0.779477   -1.590092
     22          1           0        4.946210   -2.081064   -1.415456
     23          1           0        5.295521   -0.471169   -0.794939
     24          1           0        4.650356   -1.828763    1.047970
     25          1           0        3.196225   -3.403465   -0.362689
     26          1           0        2.741429   -3.004008    1.273107
     27          1           0        1.614597   -1.482339   -1.158482
     28          1           0        0.918519   -2.830313   -0.378087
     29          1           0        0.439428   -1.685683    1.682337
     30          1           0        1.610864   -0.515035    1.434382
     31          1           0       -2.271685    1.718072   -1.467628
     32          1           0       -3.711562    1.806106   -0.521572
     33          1           0       -2.399593    3.215075    0.699326
     34          1           0       -2.143457    1.764740    1.605015
     35          1           0        2.288678    0.545856   -0.438309
     36          1           0        3.229286    2.755998   -0.632516
     37          1           0        1.830754    4.752936   -0.182788
     38          1           0       -0.527483    4.470469    0.413163
     39          1           0       -4.726546   -0.159250   -0.914743
     40          1           0       -4.938633   -2.567756   -0.579308
     41          1           0       -2.997309   -3.863935    0.240728
     42          1           0       -0.919129   -2.799531    0.656994
 ---------------------------------------------------------------------
 Rotational constants (GHZ):           0.4172134           0.2880011           0.1784678
 Standard basis: 6-31G(d,p) (6D, 7F)
 There are   410 symmetry adapted cartesian basis functions of A   symmetry.
 There are   410 symmetry adapted basis functions of A   symmetry.
   410 basis functions,   714 primitive gaussians,   410 cartesian basis functions
    72 alpha electrons       72 beta electrons
       nuclear repulsion energy      1527.3482795341 Hartrees.
 NAtoms=   42 NActive=   42 NUniq=   42 SFac= 1.00D+00 NAtFMM=   60 NAOKFM=F Big=F
 Integral buffers will be    131072 words long.
 Raffenetti 2 integral format.
 Two-electron integral symmetry is turned on.
 Nuclear repulsion after empirical dispersion term =     1527.2563334061 Hartrees.
 One-electron integrals computed using PRISM.
 NBasis=   410 RedAO= T EigKep=  3.51D-04  NBF=   410
 NBsUse=   410 1.00D-06 EigRej= -1.00D+00 NBFU=   410
 ExpMin= 1.61D-01 ExpMax= 4.17D+03 ExpMxC= 6.27D+02 IAcc=3 IRadAn=         5 AccDes= 0.00D+00
 Harris functional with IExCor=  402 and IRadAn=       5 diagonalized for initial guess.
 HarFok:  IExCor=  402 AccDes= 0.00D+00 IRadAn=         5 IDoV= 1 UseB2=F ITyADJ=14
 ICtDFT=  3500011 ScaDFX=  1.000000  1.000000  1.000000  1.000000
 FoFCou: FMM=F IPFlag=           0 FMFlag=      100000 FMFlg1=           0
         NFxFlg=           0 DoJE=T BraDBF=F KetDBF=T FulRan=T
         wScrn=  0.000000 ICntrl=       500 IOpCl=  0 I1Cent=   200000004 NGrid=           0
         NMat0=    1 NMatS0=      1 NMatT0=    0 NMatD0=    1 NMtDS0=    0 NMtDT0=    0
 Petite list used in FoFCou.
 Requested convergence on RMS density matrix=1.00D-08 within 128 cycles.
 Requested convergence on MAX density matrix=1.00D-06.
 Requested convergence on             energy=1.00D-06.
 No special actions if energy rises.
 Integral accuracy reduced to 1.0D-05 until final iterations.
 Initial convergence to 1.0D-05 achieved.  Increase integral accuracy.
 SCF Done:  E(RB3LYP) =  -808.761909554     A.U. after   14 cycles
            NFock= 14  Conv=0.61D-08     -V/T= 2.0099

 **********************************************************************

            Population analysis using the SCF Density.

 **********************************************************************

 Orbital symmetries:
       Occupied  (A) (A) (A) (A) (A) (A) (A) (A) (A) (A) (A) (A)
                 (A) (A) (A) (A) (A) (A) (A) (A) (A) (A) (A) (A)
                 (A) (A) (A) (A) (A) (A) (A) (A) (A) (A) (A) (A)
                 (A) (A) (A) (A) (A) (A) (A) (A) (A) (A) (A) (A)
                 (A) (A) (A) (A) (A) (A) (A) (A) (A) (A) (A) (A)
                 (A) (A) (A) (A) (A) (A) (A) (A) (A) (A) (A) (A)
       Virtual   (A) (A) (A) (A) (A) (A) (A) (A) (A) (A) (A) (A)
                 (A) (A) (A) (A) (A) (A) (A) (A) (A) (A) (A) (A)
                 (A) (A) (A) (A) (A) (A) (A) (A) (A) (A) (A) (A)
                 (A) (A) (A) (A) (A) (A) (A) (A) (A) (A) (A) (A)
                 (A) (A) (A) (A) (A) (A) (A) (A) (A) (A) (A) (A)
                 (A) (A) (A) (A) (A) (A) (A) (A) (A) (A) (A) (A)
                 (A) (A) (A) (A) (A) (A) (A) (A) (A) (A) (A) (A)
                 (A) (A) (A) (A) (A) (A) (A) (A) (A) (A) (A) (A)
                 (A) (A) (A) (A) (A) (A) (A) (A) (A) (A) (A) (A)
                 (A) (A) (A) (A) (A) (A) (A) (A) (A) (A) (A) (A)
                 (A) (A) (A) (A) (A) (A) (A) (A) (A) (A) (A) (A)
                 (A) (A) (A) (A) (A) (A) (A) (A) (A) (A) (A) (A)
                 (A) (A) (A) (A) (A) (A) (A) (A) (A) (A) (A) (A)
                 (A) (A) (A) (A) (A) (A) (A) (A) (A) (A) (A) (A)
                 (A) (A) (A) (A) (A) (A) (A) (A) (A) (A) (A) (A)
                 (A) (A) (A) (A) (A) (A) (A) (A) (A) (A) (A) (A)
                 (A) (A) (A) (A) (A) (A) (A) (A) (A) (A) (A) (A)
                 (A) (A) (A) (A) (A) (A) (A) (A) (A) (A) (A) (A)
                 (A) (A) (A) (A) (A) (A) (A) (A) (A) (A) (A) (A)
                 (A) (A) (A) (A) (A) (A) (A) (A) (A) (A) (A) (A)
                 (A) (A) (A) (A) (A) (A) (A) (A) (A) (A) (A) (A)
                 (A) (A) (A) (A) (A) (A) (A) (A) (A) (A) (A) (A)
                 (A) (A) (A) (A) (A) (A) (A) (A) (A) (A) (A) (A)
                 (A) (A) (A) (A) (A) (A) (A) (A) (A) (A) (A) (A)
                 (A) (A) (A) (A) (A) (A) (A) (A) (A) (A) (A) (A)
                 (A) (A) (A) (A) (A) (A) (A) (A) (A) (A) (A) (A)
                 (A) (A) (A) (A) (A) (A) (A) (A) (A) (A) (A) (A)
                 (A) (A) (A) (A) (A) (A) (A) (A) (A) (A) (A) (A)
                 (A) (A)
 The electronic state is 1-A.
 Alpha  occ. eigenvalues --  -14.36152 -14.31846 -10.23137 -10.22376 -10.21261
 Alpha  occ. eigenvalues --  -10.20905 -10.20259 -10.18590 -10.18432 -10.17926
 Alpha  occ. eigenvalues --  -10.17820 -10.17776 -10.17597 -10.17573 -10.17569
 Alpha  occ. eigenvalues --  -10.17538 -10.17507 -10.17411 -10.17136 -10.16771
 Alpha  occ. eigenvalues --   -0.93873  -0.90019  -0.84478  -0.83658  -0.79170
 Alpha  occ. eigenvalues --   -0.76564  -0.74707  -0.74395  -0.71587  -0.70152
 Alpha  occ. eigenvalues --   -0.67900  -0.64846  -0.64112  -0.59430  -0.59138
 Alpha  occ. eigenvalues --   -0.58022  -0.57721  -0.55751  -0.51336  -0.50172
 Alpha  occ. eigenvalues --   -0.49925  -0.46980  -0.46755  -0.46077  -0.45226
 Alpha  occ. eigenvalues --   -0.44787  -0.43533  -0.43306  -0.41923  -0.41393
 Alpha  occ. eigenvalues --   -0.40908  -0.40312  -0.39518  -0.38958  -0.38926
 Alpha  occ. eigenvalues --   -0.37829  -0.36998  -0.36375  -0.35007  -0.34822
 Alpha  occ. eigenvalues --   -0.34137  -0.33908  -0.32918  -0.32669  -0.32025
 Alpha  occ. eigenvalues --   -0.31265  -0.29296  -0.24039  -0.23270  -0.23044
 Alpha  occ. eigenvalues --   -0.21893  -0.17876
 Alpha virt. eigenvalues --    0.00236   0.00912   0.01379   0.03198   0.07218
 Alpha virt. eigenvalues --    0.09551   0.10238   0.10518   0.11788   0.12426
 Alpha virt. eigenvalues --    0.13930   0.14326   0.14833   0.15208   0.15402
 Alpha virt. eigenvalues --    0.15747   0.15882   0.16685   0.17092   0.17649
 Alpha virt. eigenvalues --    0.17908   0.18708   0.19072   0.19486   0.20423
 Alpha virt. eigenvalues --    0.20926   0.21529   0.22066   0.22126   0.22877
 Alpha virt. eigenvalues --    0.24315   0.24840   0.25141   0.26324   0.27521
 Alpha virt. eigenvalues --    0.28069   0.29373   0.30006   0.33176   0.33465
 Alpha virt. eigenvalues --    0.34297   0.35459   0.36450   0.37216   0.38002
 Alpha virt. eigenvalues --    0.40743   0.45670   0.49565   0.50678   0.51665
 Alpha virt. eigenvalues --    0.52000   0.52217   0.53104   0.53510   0.54424
 Alpha virt. eigenvalues --    0.54488   0.55287   0.56210   0.57074   0.57719
 Alpha virt. eigenvalues --    0.58405   0.58764   0.59079   0.60201   0.60512
 Alpha virt. eigenvalues --    0.61164   0.61459   0.62036   0.62392   0.62739
 Alpha virt. eigenvalues --    0.62846   0.63573   0.64073   0.64660   0.65234
 Alpha virt. eigenvalues --    0.66146   0.66557   0.67353   0.67940   0.69884
 Alpha virt. eigenvalues --    0.70563   0.72173   0.72557   0.73820   0.74535
 Alpha virt. eigenvalues --    0.76006   0.76609   0.77884   0.79088   0.79743
 Alpha virt. eigenvalues --    0.80281   0.81482   0.82078   0.82407   0.83038
 Alpha virt. eigenvalues --    0.83514   0.83694   0.84270   0.84462   0.85052
 Alpha virt. eigenvalues --    0.85883   0.87143   0.88258   0.88660   0.89235
 Alpha virt. eigenvalues --    0.90892   0.91628   0.91967   0.93300   0.93455
 Alpha virt. eigenvalues --    0.94078   0.94940   0.95696   0.96070   0.96763
 Alpha virt. eigenvalues --    0.97552   0.98107   0.99130   0.99577   1.02701
 Alpha virt. eigenvalues --    1.03885   1.04526   1.06964   1.07604   1.08521
 Alpha virt. eigenvalues --    1.09492   1.11397   1.12939   1.14814   1.16574
 Alpha virt. eigenvalues --    1.17065   1.18465   1.19006   1.20300   1.20624
 Alpha virt. eigenvalues --    1.23076   1.23616   1.25969   1.27320   1.29111
 Alpha virt. eigenvalues --    1.30049   1.31732   1.33200   1.35996   1.36409
 Alpha virt. eigenvalues --    1.37451   1.39059   1.40029   1.42215   1.42538
 Alpha virt. eigenvalues --    1.43125   1.44062   1.45290   1.45948   1.48334
 Alpha virt. eigenvalues --    1.51139   1.51622   1.52707   1.55922   1.57092
 Alpha virt. eigenvalues --    1.60822   1.60844   1.66056   1.67470   1.68983
 Alpha virt. eigenvalues --    1.69916   1.72027   1.73450   1.74966   1.77069
 Alpha virt. eigenvalues --    1.77854   1.79582   1.80481   1.81801   1.82492
 Alpha virt. eigenvalues --    1.83859   1.84764   1.85593   1.85917   1.86718
 Alpha virt. eigenvalues --    1.87875   1.88494   1.89653   1.90190   1.90774
 Alpha virt. eigenvalues --    1.91723   1.92537   1.94072   1.94453   1.94966
 Alpha virt. eigenvalues --    1.95257   1.96058   1.96791   1.99513   1.99798
 Alpha virt. eigenvalues --    2.00749   2.01536   2.02631   2.02942   2.03583
 Alpha virt. eigenvalues --    2.04538   2.06516   2.06947   2.07755   2.08930
 Alpha virt. eigenvalues --    2.09882   2.10475   2.11665   2.15519   2.15667
 Alpha virt. eigenvalues --    2.16163   2.18431   2.20636   2.21047   2.21284
 Alpha virt. eigenvalues --    2.23581   2.23956   2.25004   2.26198   2.27443
 Alpha virt. eigenvalues --    2.28324   2.28874   2.29717   2.30500   2.31638
 Alpha virt. eigenvalues --    2.32237   2.32935   2.34242   2.35393   2.37877
 Alpha virt. eigenvalues --    2.39063   2.39581   2.40394   2.41298   2.41855
 Alpha virt. eigenvalues --    2.42390   2.43613   2.44627   2.45080   2.45799
 Alpha virt. eigenvalues --    2.46690   2.48519   2.49172   2.49795   2.50499
 Alpha virt. eigenvalues --    2.51578   2.52213   2.53020   2.55443   2.55971
 Alpha virt. eigenvalues --    2.56698   2.57613   2.58782   2.59790   2.61202
 Alpha virt. eigenvalues --    2.62368   2.62530   2.64094   2.65962   2.66153
 Alpha virt. eigenvalues --    2.66693   2.67686   2.69876   2.70361   2.71493
 Alpha virt. eigenvalues --    2.72050   2.72837   2.74549   2.74989   2.75249
 Alpha virt. eigenvalues --    2.75334   2.78066   2.79672   2.80589   2.81622
 Alpha virt. eigenvalues --    2.82882   2.84312   2.85736   2.86469   2.88598
 Alpha virt. eigenvalues --    2.89001   2.89384   2.91492   2.93228   2.95616
 Alpha virt. eigenvalues --    2.96578   2.99744   3.00162   3.05771   3.08215
 Alpha virt. eigenvalues --    3.11271   3.16534   3.20350   3.22580   3.23999
 Alpha virt. eigenvalues --    3.27158   3.27284   3.29858   3.30439   3.31987
 Alpha virt. eigenvalues --    3.33215   3.34844   3.35695   3.39107   3.39982
 Alpha virt. eigenvalues --    3.41597   3.43382   3.44927   3.45785   3.47750
 Alpha virt. eigenvalues --    3.50214   3.50932   3.52881   3.54051   3.57483
 Alpha virt. eigenvalues --    3.59241   3.85959   3.87660   4.10047   4.14992
 Alpha virt. eigenvalues --    4.15755   4.17204   4.18913   4.21441   4.24596
 Alpha virt. eigenvalues --    4.29045   4.39462   4.42766   4.45311   4.47397
 Alpha virt. eigenvalues --    4.48080   4.50531   4.56905   4.61938   4.65524
 Alpha virt. eigenvalues --    4.74214   4.85106   4.89503
          Condensed to atoms (all electrons):
               1          2          3          4          5          6
     1  C    4.795709   0.320098  -0.055658  -0.004645  -0.000001   0.000008
     2  N    0.320098   6.781370   0.323833  -0.069810  -0.006323  -0.000005
     3  C   -0.055658   0.323833   4.824616   0.344956  -0.029496   0.002924
     4  C   -0.004645  -0.069810   0.344956   5.035608   0.359215  -0.051285
     5  C   -0.000001  -0.006323  -0.029496   0.359215   4.860279   0.298686
     6  N    0.000008  -0.000005   0.002924  -0.051285   0.298686   7.242569
     7  C    0.000000   0.000002   0.000051  -0.001751  -0.037015   0.251298
     8  C   -0.000000   0.000000   0.000002  -0.000210   0.003460  -0.056215
     9  C   -0.000000  -0.000000   0.000000  -0.000007  -0.000148  -0.012385
    10  C    0.000000   0.000000  -0.000000   0.000011  -0.000028  -0.009626
    11  C   -0.000001  -0.000000   0.000005  -0.000297   0.003172  -0.065411
    12  C    0.000037   0.000024   0.000116  -0.005036  -0.039435   0.258443
    13  C   -0.000678  -0.002875  -0.000159   0.000432  -0.008297  -0.074751
    14  C    0.000022  -0.000095   0.000001   0.000194  -0.000374   0.004992
    15  C   -0.000000  -0.000001  -0.000000  -0.000002   0.000027  -0.000126
    16  C   -0.000000  -0.000000  -0.000000   0.000003  -0.000063   0.006358
    17  C    0.000000  -0.000000  -0.000000  -0.000001  -0.000046   0.005629
    18  C    0.000000  -0.000000   0.000000  -0.000006  -0.000014  -0.000054
    19  C   -0.000000   0.000000  -0.000002   0.000171   0.000161   0.004518
    20  C   -0.000000  -0.000003  -0.000048  -0.003455  -0.003479  -0.070975
    21  H    0.391854  -0.043430  -0.002597   0.004156   0.000021  -0.000015
    22  H    0.377142  -0.053415  -0.008434  -0.001358   0.000020  -0.000000
    23  H    0.387087  -0.031701   0.005422   0.000108  -0.000002  -0.000001
    24  H   -0.038022   0.345846  -0.035609   0.006069   0.000201   0.000002
    25  H   -0.007865  -0.055822   0.370451  -0.050566   0.004267  -0.000108
    26  H    0.006127  -0.034937   0.381373  -0.037201  -0.007739   0.000131
    27  H    0.001441  -0.005604  -0.031154   0.390841  -0.040002  -0.000682
    28  H    0.000008   0.004597  -0.032534   0.362525  -0.036070  -0.000685
    29  H    0.000002   0.000116   0.000655  -0.046752   0.366130  -0.034805
    30  H   -0.000022   0.014316  -0.003616  -0.056590   0.385127  -0.033269
    31  H    0.000000  -0.000000   0.000000  -0.000001  -0.000008   0.001483
    32  H    0.000000   0.000000  -0.000000  -0.000000   0.000004  -0.000040
    33  H   -0.000000  -0.000000  -0.000000   0.000000   0.000002   0.000012
    34  H    0.000000   0.000000  -0.000000   0.000002   0.000080   0.003624
    35  H   -0.001524   0.008856  -0.000738  -0.003983   0.002530  -0.010775
    36  H    0.000102  -0.000004   0.000000   0.000002   0.000008  -0.000098
    37  H    0.000000   0.000000  -0.000000   0.000000  -0.000000   0.000006
    38  H   -0.000000  -0.000000   0.000000  -0.000000   0.000002  -0.000088
    39  H   -0.000000   0.000000   0.000000  -0.000000   0.000002  -0.000070
    40  H    0.000000   0.000000  -0.000000   0.000000  -0.000000   0.000005
    41  H   -0.000000   0.000000  -0.000000  -0.000001   0.000013  -0.000088
    42  H    0.000000  -0.000002   0.000152  -0.003978   0.005605  -0.010952
               7          8          9         10         11         12
     1  C    0.000000  -0.000000  -0.000000   0.000000  -0.000001   0.000037
     2  N    0.000002   0.000000  -0.000000   0.000000  -0.000000   0.000024
     3  C    0.000051   0.000002   0.000000  -0.000000   0.000005   0.000116
     4  C   -0.001751  -0.000210  -0.000007   0.000011  -0.000297  -0.005036
     5  C   -0.037015   0.003460  -0.000148  -0.000028   0.003172  -0.039435
     6  N    0.251298  -0.056215  -0.012385  -0.009626  -0.065411   0.258443
     7  C    4.691013   0.501919  -0.063021  -0.000578  -0.005789  -0.009077
     8  C    0.501919   4.804850   0.357264  -0.038312  -0.005382  -0.005237
     9  C   -0.063021   0.357264   5.058317   0.337158  -0.044320   0.001001
    10  C   -0.000578  -0.038312   0.337158   5.056657   0.362585  -0.069411
    11  C   -0.005789  -0.005382  -0.044320   0.362585   4.805706   0.507151
    12  C   -0.009077  -0.005237   0.001001  -0.069411   0.507151   4.721803
    13  C    0.003803  -0.000027  -0.000193   0.008423  -0.043719   0.484961
    14  C   -0.000070  -0.000005   0.000048   0.000059  -0.037719  -0.021951
    15  C    0.000021  -0.000002  -0.000145   0.007874  -0.026197  -0.044628
    16  C   -0.000272   0.000135  -0.001763  -0.056911   0.535204  -0.011491
    17  C   -0.012367   0.538159  -0.057249   0.001522   0.000207  -0.000430
    18  C   -0.041901  -0.027250   0.007711  -0.000184  -0.000002   0.000028
    19  C   -0.024675  -0.036892   0.000170   0.000018  -0.000003  -0.000069
    20  C    0.478511  -0.035846   0.007935  -0.000178   0.000015   0.003622
    21  H   -0.000001   0.000000   0.000000  -0.000000  -0.000001   0.000009
    22  H    0.000000   0.000000  -0.000000  -0.000000  -0.000000  -0.000001
    23  H   -0.000000  -0.000000  -0.000000  -0.000000   0.000000   0.000004
    24  H   -0.000000   0.000000   0.000000  -0.000000   0.000000   0.000000
    25  H    0.000002  -0.000000  -0.000000   0.000000  -0.000000  -0.000004
    26  H   -0.000002  -0.000000   0.000000   0.000000  -0.000000  -0.000000
    27  H    0.000603  -0.000020   0.000002  -0.000000  -0.000072  -0.000143
    28  H    0.001157  -0.000040   0.000000  -0.000001   0.000009   0.000240
    29  H   -0.005996   0.000184   0.000008  -0.000030   0.000071   0.003726
    30  H    0.002689  -0.000095   0.000001  -0.000016   0.000781  -0.000188
    31  H   -0.002924  -0.031175   0.371484  -0.042703  -0.004481  -0.000414
    32  H    0.004576  -0.032388   0.366540  -0.033532   0.005231   0.000241
    33  H    0.000167   0.004713  -0.030951   0.365261  -0.030609   0.005493
    34  H   -0.000010  -0.004758  -0.042357   0.370308  -0.029650  -0.005723
    35  H   -0.000041   0.000014   0.000002  -0.000179   0.004997  -0.039826
    36  H    0.000000   0.000000  -0.000000   0.000007   0.000870   0.004028
    37  H   -0.000000   0.000000   0.000001  -0.000198   0.004034   0.001183
    38  H   -0.000004  -0.000001   0.000375  -0.012895  -0.038602   0.004823
    39  H    0.004696  -0.041781  -0.013068   0.000304  -0.000005  -0.000003
    40  H    0.001100   0.004270  -0.000200   0.000002   0.000000  -0.000000
    41  H    0.003988   0.000893   0.000007  -0.000000  -0.000000   0.000001
    42  H   -0.039627   0.004342  -0.000175   0.000004   0.000009  -0.000088
              13         14         15         16         17         18
     1  C   -0.000678   0.000022  -0.000000  -0.000000   0.000000   0.000000
     2  N   -0.002875  -0.000095  -0.000001  -0.000000  -0.000000  -0.000000
     3  C   -0.000159   0.000001  -0.000000  -0.000000  -0.000000   0.000000
     4  C    0.000432   0.000194  -0.000002   0.000003  -0.000001  -0.000006
     5  C   -0.008297  -0.000374   0.000027  -0.000063  -0.000046  -0.000014
     6  N   -0.074751   0.004992  -0.000126   0.006358   0.005629  -0.000054
     7  C    0.003803  -0.000070   0.000021  -0.000272  -0.012367  -0.041901
     8  C   -0.000027  -0.000005  -0.000002   0.000135   0.538159  -0.027250
     9  C   -0.000193   0.000048  -0.000145  -0.001763  -0.057249   0.007711
    10  C    0.008423   0.000059   0.007874  -0.056911   0.001522  -0.000184
    11  C   -0.043719  -0.037719  -0.026197   0.535204   0.000207  -0.000002
    12  C    0.484961  -0.021951  -0.044628  -0.011491  -0.000430   0.000028
    13  C    4.953170   0.539590  -0.030105  -0.054659  -0.000003   0.000000
    14  C    0.539590   4.815000   0.544071  -0.035505   0.000000  -0.000000
    15  C   -0.030105   0.544071   4.843840   0.512624  -0.000000   0.000000
    16  C   -0.054659  -0.035505   0.512624   4.918769   0.000004  -0.000000
    17  C   -0.000003   0.000000  -0.000000   0.000004   4.911173   0.515742
    18  C    0.000000  -0.000000   0.000000  -0.000000   0.515742   4.832504
    19  C    0.000001  -0.000000  -0.000000   0.000000  -0.035237   0.551727
    20  C   -0.000124   0.000001   0.000000   0.000000  -0.056379  -0.032091
    21  H    0.001043   0.000111   0.000001   0.000000  -0.000000  -0.000000
    22  H   -0.000022  -0.000001  -0.000000   0.000000  -0.000000  -0.000000
    23  H    0.000077  -0.000004   0.000000   0.000000   0.000000  -0.000000
    24  H    0.000042   0.000002   0.000000  -0.000000   0.000000   0.000000
    25  H   -0.000039   0.000000  -0.000000   0.000000   0.000000  -0.000000
    26  H    0.000007   0.000000  -0.000000  -0.000000  -0.000000   0.000000
    27  H    0.000766   0.000050   0.000001  -0.000000  -0.000001   0.000001
    28  H   -0.000133  -0.000005   0.000000  -0.000000  -0.000004   0.000003
    29  H    0.000718  -0.000001  -0.000001   0.000001  -0.000016  -0.000019
    30  H    0.000720  -0.000066  -0.000037  -0.000083   0.000001   0.000000
    31  H   -0.000358  -0.000020  -0.000068   0.001570  -0.000383  -0.000317
    32  H    0.000008  -0.000001   0.000004  -0.000061  -0.009159   0.000592
    33  H   -0.000217   0.000012   0.000380  -0.008899  -0.000149   0.000003
    34  H   -0.000100   0.000025  -0.000301   0.001979   0.001003  -0.000026
    35  H    0.355740  -0.040744   0.005472   0.000911   0.000000  -0.000000
    36  H   -0.036946   0.366611  -0.043188   0.004836   0.000000  -0.000000
    37  H    0.004858  -0.042112   0.361891  -0.037646   0.000000  -0.000000
    38  H    0.000463   0.005255  -0.046008   0.365040   0.000000  -0.000000
    39  H   -0.000000   0.000000  -0.000000   0.000000   0.367753  -0.045648
    40  H    0.000000  -0.000000  -0.000000   0.000000  -0.038475   0.361808
    41  H   -0.000000   0.000000  -0.000000   0.000000   0.004947  -0.041742
    42  H   -0.000009   0.000000   0.000000   0.000000   0.001092   0.005435
              19         20         21         22         23         24
     1  C   -0.000000  -0.000000   0.391854   0.377142   0.387087  -0.038022
     2  N    0.000000  -0.000003  -0.043430  -0.053415  -0.031701   0.345846
     3  C   -0.000002  -0.000048  -0.002597  -0.008434   0.005422  -0.035609
     4  C    0.000171  -0.003455   0.004156  -0.001358   0.000108   0.006069
     5  C    0.000161  -0.003479   0.000021   0.000020  -0.000002   0.000201
     6  N    0.004518  -0.070975  -0.000015  -0.000000  -0.000001   0.000002
     7  C   -0.024675   0.478511  -0.000001   0.000000  -0.000000  -0.000000
     8  C   -0.036892  -0.035846   0.000000   0.000000  -0.000000   0.000000
     9  C    0.000170   0.007935   0.000000  -0.000000  -0.000000   0.000000
    10  C    0.000018  -0.000178  -0.000000  -0.000000  -0.000000  -0.000000
    11  C   -0.000003   0.000015  -0.000001  -0.000000   0.000000   0.000000
    12  C   -0.000069   0.003622   0.000009  -0.000001   0.000004   0.000000
    13  C    0.000001  -0.000124   0.001043  -0.000022   0.000077   0.000042
    14  C   -0.000000   0.000001   0.000111  -0.000001  -0.000004   0.000002
    15  C   -0.000000   0.000000   0.000001  -0.000000   0.000000   0.000000
    16  C    0.000000   0.000000   0.000000   0.000000   0.000000  -0.000000
    17  C   -0.035237  -0.056379  -0.000000  -0.000000   0.000000   0.000000
    18  C    0.551727  -0.032091  -0.000000  -0.000000  -0.000000   0.000000
    19  C    4.804738   0.541785   0.000000  -0.000000   0.000000  -0.000000
    20  C    0.541785   4.967677   0.000000  -0.000000   0.000000   0.000000
    21  H    0.000000   0.000000   0.609097  -0.050033  -0.027922   0.005861
    22  H   -0.000000  -0.000000  -0.050033   0.678530  -0.039349  -0.003553
    23  H    0.000000   0.000000  -0.027922  -0.039349   0.603020  -0.003846
    24  H   -0.000000   0.000000   0.005861  -0.003553  -0.003846   0.492704
    25  H   -0.000000   0.000002  -0.002813   0.015188  -0.000076  -0.000522
    26  H   -0.000000  -0.000007   0.000033  -0.000038  -0.000293  -0.007482
    27  H   -0.000012   0.000154   0.003097  -0.000040  -0.000153   0.000020
    28  H   -0.000067   0.000405  -0.000373   0.000088  -0.000001  -0.000251
    29  H    0.000289   0.003199  -0.000007   0.000001   0.000000   0.000006
    30  H   -0.000017   0.000172  -0.000366   0.000050  -0.000025  -0.000601
    31  H    0.000036  -0.000200  -0.000000  -0.000000   0.000000   0.000000
    32  H    0.000005  -0.000187  -0.000000  -0.000000  -0.000000   0.000000
    33  H   -0.000000   0.000003   0.000000   0.000000   0.000000   0.000000
    34  H   -0.000025  -0.000309  -0.000000   0.000000   0.000000  -0.000000
    35  H   -0.000000  -0.000007  -0.001919   0.000274  -0.000110  -0.000151
    36  H    0.000000  -0.000000   0.000080  -0.000002   0.000094   0.000000
    37  H   -0.000000   0.000000   0.000000   0.000000  -0.000000  -0.000000
    38  H    0.000000  -0.000000   0.000000  -0.000000  -0.000000   0.000000
    39  H    0.005465   0.000527   0.000000   0.000000  -0.000000   0.000000
    40  H   -0.042792   0.005289  -0.000000   0.000000  -0.000000  -0.000000
    41  H    0.365981  -0.038156  -0.000000   0.000000   0.000000  -0.000000
    42  H   -0.039739   0.356757   0.000000  -0.000000  -0.000000   0.000000
              25         26         27         28         29         30
     1  C   -0.007865   0.006127   0.001441   0.000008   0.000002  -0.000022
     2  N   -0.055822  -0.034937  -0.005604   0.004597   0.000116   0.014316
     3  C    0.370451   0.381373  -0.031154  -0.032534   0.000655  -0.003616
     4  C   -0.050566  -0.037201   0.390841   0.362525  -0.046752  -0.056590
     5  C    0.004267  -0.007739  -0.040002  -0.036070   0.366130   0.385127
     6  N   -0.000108   0.000131  -0.000682  -0.000685  -0.034805  -0.033269
     7  C    0.000002  -0.000002   0.000603   0.001157  -0.005996   0.002689
     8  C   -0.000000  -0.000000  -0.000020  -0.000040   0.000184  -0.000095
     9  C   -0.000000   0.000000   0.000002   0.000000   0.000008   0.000001
    10  C    0.000000   0.000000  -0.000000  -0.000001  -0.000030  -0.000016
    11  C   -0.000000  -0.000000  -0.000072   0.000009   0.000071   0.000781
    12  C   -0.000004  -0.000000  -0.000143   0.000240   0.003726  -0.000188
    13  C   -0.000039   0.000007   0.000766  -0.000133   0.000718   0.000720
    14  C    0.000000   0.000000   0.000050  -0.000005  -0.000001  -0.000066
    15  C   -0.000000  -0.000000   0.000001   0.000000  -0.000001  -0.000037
    16  C    0.000000  -0.000000  -0.000000  -0.000000   0.000001  -0.000083
    17  C    0.000000  -0.000000  -0.000001  -0.000004  -0.000016   0.000001
    18  C   -0.000000   0.000000   0.000001   0.000003  -0.000019   0.000000
    19  C   -0.000000  -0.000000  -0.000012  -0.000067   0.000289  -0.000017
    20  C    0.000002  -0.000007   0.000154   0.000405   0.003199   0.000172
    21  H   -0.002813   0.000033   0.003097  -0.000373  -0.000007  -0.000366
    22  H    0.015188  -0.000038  -0.000040   0.000088   0.000001   0.000050
    23  H   -0.000076  -0.000293  -0.000153  -0.000001   0.000000  -0.000025
    24  H   -0.000522  -0.007482   0.000020  -0.000251   0.000006  -0.000601
    25  H    0.697815  -0.043916  -0.003503  -0.000077  -0.000161   0.000508
    26  H   -0.043916   0.647643   0.005323  -0.002382   0.003730  -0.000056
    27  H   -0.003503   0.005323   0.600879  -0.036087   0.004880  -0.001096
    28  H   -0.000077  -0.002382  -0.036087   0.644136  -0.011154   0.006064
    29  H   -0.000161   0.003730   0.004880  -0.011154   0.642687  -0.033064
    30  H    0.000508  -0.000056  -0.001096   0.006064  -0.033064   0.582794
    31  H   -0.000000   0.000000   0.000001   0.000000   0.000001   0.000001
    32  H   -0.000000  -0.000000  -0.000000   0.000000  -0.000000  -0.000000
    33  H   -0.000000  -0.000000  -0.000000   0.000000  -0.000000   0.000000
    34  H    0.000000  -0.000000  -0.000000   0.000000  -0.000014  -0.000002
    35  H    0.000180  -0.000013  -0.000257   0.000165   0.000199  -0.000741
    36  H    0.000000  -0.000000  -0.000001  -0.000000  -0.000000  -0.000005
    37  H    0.000000   0.000000   0.000000  -0.000000  -0.000000   0.000000
    38  H   -0.000000  -0.000000  -0.000000   0.000000  -0.000000   0.000001
    39  H   -0.000000   0.000000  -0.000000   0.000000   0.000000  -0.000000
    40  H    0.000000   0.000000   0.000000  -0.000000   0.000000  -0.000000
    41  H    0.000000  -0.000000  -0.000000   0.000007  -0.000003  -0.000000
    42  H   -0.000021   0.000037  -0.000273   0.003761  -0.000176   0.000073
              31         32         33         34         35         36
     1  C    0.000000   0.000000  -0.000000   0.000000  -0.001524   0.000102
     2  N   -0.000000   0.000000  -0.000000   0.000000   0.008856  -0.000004
     3  C    0.000000  -0.000000  -0.000000  -0.000000  -0.000738   0.000000
     4  C   -0.000001  -0.000000   0.000000   0.000002  -0.003983   0.000002
     5  C   -0.000008   0.000004   0.000002   0.000080   0.002530   0.000008
     6  N    0.001483  -0.000040   0.000012   0.003624  -0.010775  -0.000098
     7  C   -0.002924   0.004576   0.000167  -0.000010  -0.000041   0.000000
     8  C   -0.031175  -0.032388   0.004713  -0.004758   0.000014   0.000000
     9  C    0.371484   0.366540  -0.030951  -0.042357   0.000002  -0.000000
    10  C   -0.042703  -0.033532   0.365261   0.370308  -0.000179   0.000007
    11  C   -0.004481   0.005231  -0.030609  -0.029650   0.004997   0.000870
    12  C   -0.000414   0.000241   0.005493  -0.005723  -0.039826   0.004028
    13  C   -0.000358   0.000008  -0.000217  -0.000100   0.355740  -0.036946
    14  C   -0.000020  -0.000001   0.000012   0.000025  -0.040744   0.366611
    15  C   -0.000068   0.000004   0.000380  -0.000301   0.005472  -0.043188
    16  C    0.001570  -0.000061  -0.008899   0.001979   0.000911   0.004836
    17  C   -0.000383  -0.009159  -0.000149   0.001003   0.000000   0.000000
    18  C   -0.000317   0.000592   0.000003  -0.000026  -0.000000  -0.000000
    19  C    0.000036   0.000005  -0.000000  -0.000025  -0.000000   0.000000
    20  C   -0.000200  -0.000187   0.000003  -0.000309  -0.000007  -0.000000
    21  H   -0.000000  -0.000000   0.000000  -0.000000  -0.001919   0.000080
    22  H   -0.000000  -0.000000   0.000000   0.000000   0.000274  -0.000002
    23  H    0.000000  -0.000000   0.000000   0.000000  -0.000110   0.000094
    24  H    0.000000   0.000000   0.000000  -0.000000  -0.000151   0.000000
    25  H   -0.000000  -0.000000  -0.000000   0.000000   0.000180   0.000000
    26  H    0.000000  -0.000000  -0.000000  -0.000000  -0.000013  -0.000000
    27  H    0.000001  -0.000000  -0.000000  -0.000000  -0.000257  -0.000001
    28  H    0.000000   0.000000   0.000000   0.000000   0.000165  -0.000000
    29  H    0.000001  -0.000000  -0.000000  -0.000014   0.000199  -0.000000
    30  H    0.000001  -0.000000   0.000000  -0.000002  -0.000741  -0.000005
    31  H    0.620448  -0.037490  -0.000225   0.005785   0.000004  -0.000000
    32  H   -0.037490   0.641287  -0.008384  -0.000169  -0.000000   0.000000
    33  H   -0.000225  -0.008384   0.639053  -0.037407   0.000003  -0.000000
    34  H    0.005785  -0.000169  -0.037407   0.622677   0.000001  -0.000000
    35  H    0.000004  -0.000000   0.000003   0.000001   0.628809  -0.007898
    36  H   -0.000000   0.000000  -0.000000  -0.000000  -0.007898   0.639527
    37  H    0.000002  -0.000000  -0.000018   0.000004  -0.000235  -0.005947
    38  H    0.000142  -0.000039   0.007199   0.000308   0.000015  -0.000242
    39  H    0.000723   0.006411  -0.000026   0.000053  -0.000000  -0.000000
    40  H    0.000004  -0.000022  -0.000000   0.000001   0.000000   0.000000
    41  H   -0.000000  -0.000000   0.000000  -0.000000  -0.000000  -0.000000
    42  H    0.000001   0.000003  -0.000000   0.000005  -0.000000  -0.000000
              37         38         39         40         41         42
     1  C    0.000000  -0.000000  -0.000000   0.000000  -0.000000   0.000000
     2  N    0.000000  -0.000000   0.000000   0.000000   0.000000  -0.000002
     3  C   -0.000000   0.000000   0.000000  -0.000000  -0.000000   0.000152
     4  C    0.000000  -0.000000  -0.000000   0.000000  -0.000001  -0.003978
     5  C   -0.000000   0.000002   0.000002  -0.000000   0.000013   0.005605
     6  N    0.000006  -0.000088  -0.000070   0.000005  -0.000088  -0.010952
     7  C   -0.000000  -0.000004   0.004696   0.001100   0.003988  -0.039627
     8  C    0.000000  -0.000001  -0.041781   0.004270   0.000893   0.004342
     9  C    0.000001   0.000375  -0.013068  -0.000200   0.000007  -0.000175
    10  C   -0.000198  -0.012895   0.000304   0.000002  -0.000000   0.000004
    11  C    0.004034  -0.038602  -0.000005   0.000000  -0.000000   0.000009
    12  C    0.001183   0.004823  -0.000003  -0.000000   0.000001  -0.000088
    13  C    0.004858   0.000463  -0.000000   0.000000  -0.000000  -0.000009
    14  C   -0.042112   0.005255   0.000000  -0.000000   0.000000   0.000000
    15  C    0.361891  -0.046008  -0.000000  -0.000000  -0.000000   0.000000
    16  C   -0.037646   0.365040   0.000000   0.000000   0.000000   0.000000
    17  C    0.000000   0.000000   0.367753  -0.038475   0.004947   0.001092
    18  C   -0.000000  -0.000000  -0.045648   0.361808  -0.041742   0.005435
    19  C   -0.000000   0.000000   0.005465  -0.042792   0.365981  -0.039739
    20  C    0.000000  -0.000000   0.000527   0.005289  -0.038156   0.356757
    21  H    0.000000   0.000000   0.000000  -0.000000  -0.000000   0.000000
    22  H    0.000000  -0.000000   0.000000   0.000000   0.000000  -0.000000
    23  H   -0.000000  -0.000000  -0.000000  -0.000000   0.000000  -0.000000
    24  H   -0.000000   0.000000   0.000000  -0.000000  -0.000000   0.000000
    25  H    0.000000  -0.000000  -0.000000   0.000000   0.000000  -0.000021
    26  H    0.000000  -0.000000   0.000000   0.000000  -0.000000   0.000037
    27  H    0.000000  -0.000000  -0.000000   0.000000  -0.000000  -0.000273
    28  H   -0.000000   0.000000   0.000000  -0.000000   0.000007   0.003761
[...]
    33  H   -0.000016   0.000091   0.000862  -0.007668   0.000107  -0.000076
    34  H    0.001993  -0.000497   0.000734  -0.001634   0.000611   0.000416
    35  H    0.409940  -0.018616   0.001113   0.001771   0.000036  -0.000010
    36  H   -0.030194   0.399558  -0.034699   0.004713  -0.000000   0.000000
    37  H    0.010270  -0.045288   0.421408  -0.043820  -0.000000   0.000000
    38  H   -0.000347   0.004697  -0.031852   0.400456   0.000005  -0.000001
    39  H    0.000009  -0.000000  -0.000000  -0.000012   0.406319  -0.031318
    40  H    0.000000  -0.000000   0.000000  -0.000000  -0.039562   0.415626
    41  H   -0.000002  -0.000000  -0.000000   0.000000   0.003687  -0.031845
    42  H   -0.000339   0.000011  -0.000002   0.000004   0.003225  -0.000560
              19         20         21         22         23         24
     1  C    0.000003   0.000012   0.424255   0.408630   0.412954  -0.040332
     2  N    0.000006  -0.000134  -0.053132  -0.046196  -0.033796   0.365927
     3  C   -0.000096  -0.001356  -0.017666   0.001840   0.009497  -0.050273
     4  C    0.003217  -0.006681   0.026035  -0.011794  -0.001090   0.014279
     5  C   -0.008898  -0.036747  -0.005825   0.000383   0.000570  -0.000812
     6  N    0.003349  -0.075495   0.000216  -0.000011  -0.000022   0.000080
     7  C   -0.047500   0.448708   0.000066  -0.000003  -0.000000   0.000009
     8  C   -0.059424  -0.004583  -0.000007  -0.000000   0.000000  -0.000001
     9  C   -0.000239   0.003752   0.000003  -0.000000  -0.000000   0.000000
    10  C   -0.001005   0.002244  -0.000003   0.000000   0.000000  -0.000000
    11  C    0.000330   0.003204  -0.000109   0.000001  -0.000005   0.000002
    12  C   -0.000792   0.007646   0.000770  -0.000131   0.000068   0.000183
    13  C   -0.000054  -0.001250  -0.002986  -0.000113   0.001110   0.000297
    14  C    0.000007   0.000003  -0.000141   0.000128  -0.000160  -0.000036
    15  C   -0.000001  -0.000023  -0.000278   0.000013  -0.000057  -0.000011
    16  C    0.000015   0.000215   0.000068  -0.000002   0.000006   0.000002
    17  C   -0.026690  -0.076776   0.000000   0.000000  -0.000000   0.000000
    18  C    0.517016  -0.039261  -0.000000  -0.000000   0.000000   0.000000
    19  C    4.943590   0.489096   0.000001  -0.000000  -0.000000  -0.000000
    20  C    0.489096   5.134329   0.000058  -0.000007  -0.000000   0.000007
    21  H    0.000001   0.000058   0.553017  -0.049731  -0.023947   0.009367
    22  H   -0.000000  -0.000007  -0.049731   0.579467  -0.025073  -0.006856
    23  H   -0.000000  -0.000000  -0.023947  -0.025073   0.518292  -0.008478
    24  H   -0.000000   0.000007   0.009367  -0.006856  -0.008478   0.520612
    25  H   -0.000009  -0.000235  -0.003786   0.013271   0.000216  -0.001579
    26  H    0.000017   0.000100  -0.000416   0.000441  -0.000234  -0.013456
    27  H    0.000212   0.000777  -0.007594   0.001006   0.000345  -0.000469
    28  H    0.004215  -0.003113  -0.000280   0.000356  -0.000007  -0.000502
    29  H    0.000930  -0.012387  -0.000164   0.000022   0.000010  -0.000077
    30  H    0.000228   0.002310  -0.000170   0.000283  -0.000208  -0.000719
    31  H    0.000211  -0.000137  -0.000001   0.000000  -0.000000   0.000000
    32  H   -0.000107  -0.000111  -0.000000  -0.000000   0.000000   0.000000
    33  H    0.000029  -0.000122   0.000000   0.000000  -0.000000  -0.000000
    34  H   -0.000106  -0.000630  -0.000000   0.000000   0.000000  -0.000000
    35  H    0.000004   0.000077   0.001204   0.000572  -0.001926  -0.000613
    36  H   -0.000000  -0.000002  -0.000093  -0.000007   0.000336  -0.000002
    37  H   -0.000000  -0.000000  -0.000002   0.000000  -0.000001  -0.000000
    38  H    0.000000   0.000000   0.000000  -0.000000  -0.000000   0.000000
    39  H    0.004895  -0.000674   0.000000   0.000000  -0.000000   0.000000
    40  H   -0.038730   0.007716  -0.000000  -0.000000   0.000000  -0.000000
    41  H    0.397922  -0.028694   0.000000   0.000000  -0.000000  -0.000000
    42  H   -0.004852   0.406696   0.000001  -0.000001   0.000000   0.000004
              25         26         27         28         29         30
     1  C   -0.016602   0.008800  -0.003576  -0.000097  -0.000176   0.000042
     2  N   -0.049030  -0.037083  -0.005105   0.005714   0.001159   0.020993
     3  C    0.491080   0.418819  -0.034484  -0.033009   0.005241   0.001978
     4  C   -0.122842  -0.025935   0.454871   0.419062  -0.081821  -0.061904
     5  C    0.011477  -0.015899  -0.085568  -0.039522   0.418336   0.424139
     6  N   -0.000562   0.000542   0.007366   0.001617  -0.033392  -0.025019
     7  C   -0.000032  -0.000112  -0.000326  -0.002687  -0.009116   0.004305
     8  C   -0.000003  -0.000003   0.000289   0.000066   0.002136   0.000403
     9  C   -0.000001  -0.000001  -0.000018   0.000030  -0.000072  -0.000011
    10  C    0.000001  -0.000000  -0.000027  -0.000018  -0.000025  -0.000093
    11  C   -0.000011   0.000002   0.000326  -0.000088   0.002890   0.001506
    12  C   -0.000354   0.000200   0.002423  -0.000871   0.010762  -0.008266
    13  C    0.000043  -0.000256  -0.009311   0.000631  -0.000523  -0.011887
    14  C    0.000041  -0.000008   0.000815   0.000053   0.000068   0.001360
    15  C    0.000003   0.000001   0.000011  -0.000001  -0.000016  -0.000063
    16  C   -0.000001  -0.000000  -0.000011   0.000002  -0.000013   0.000020
    17  C    0.000000   0.000002   0.000083   0.000063  -0.000088   0.000055
    18  C   -0.000001  -0.000002  -0.000012  -0.000180  -0.000042  -0.000023
    19  C   -0.000009   0.000017   0.000212   0.004215   0.000930   0.000228
    20  C   -0.000235   0.000100   0.000777  -0.003113  -0.012387   0.002310
    21  H   -0.003786  -0.000416  -0.007594  -0.000280  -0.000164  -0.000170
    22  H    0.013271   0.000441   0.001006   0.000356   0.000022   0.000283
    23  H    0.000216  -0.000234   0.000345  -0.000007   0.000010  -0.000208
    24  H   -0.001579  -0.013456  -0.000469  -0.000502  -0.000077  -0.000719
    25  H    0.550823  -0.022271  -0.001057   0.001239  -0.000226   0.001204
    26  H   -0.022271   0.526300   0.004153   0.000754   0.000329   0.001748
    27  H   -0.001057   0.004153   0.468501  -0.008267   0.003400   0.005886
    28  H    0.001239   0.000754  -0.008267   0.505651  -0.001324   0.003132
    29  H   -0.000226   0.000329   0.003400  -0.001324   0.508187   0.000670
    30  H    0.001204   0.001748   0.005886   0.003132   0.000670   0.433996
    31  H   -0.000000   0.000000   0.000013   0.000010   0.000011   0.000013
    32  H   -0.000000  -0.000000  -0.000001  -0.000001  -0.000006  -0.000002
    33  H    0.000000   0.000000  -0.000000   0.000000  -0.000009  -0.000007
    34  H    0.000000  -0.000000  -0.000003   0.000003  -0.000197  -0.000031
    35  H    0.000310   0.000609  -0.003087   0.000130   0.000394  -0.013140
    36  H   -0.000000  -0.000002  -0.000017   0.000000  -0.000001  -0.000044
    37  H    0.000000   0.000000   0.000002  -0.000000   0.000000   0.000005
    38  H   -0.000000   0.000000  -0.000000   0.000000   0.000000  -0.000002
    39  H   -0.000000   0.000000  -0.000000  -0.000000  -0.000002  -0.000000
    40  H    0.000000  -0.000000  -0.000000  -0.000002   0.000002  -0.000000
    41  H    0.000000  -0.000001  -0.000006   0.000211  -0.000075   0.000001
    42  H   -0.000095   0.000321   0.001542  -0.004976  -0.002229   0.001449
              31         32         33         34         35         36
     1  C   -0.000000   0.000000   0.000000   0.000000   0.002024  -0.000112
     2  N    0.000000  -0.000000  -0.000000   0.000000  -0.005233  -0.000143
     3  C    0.000002  -0.000000  -0.000000  -0.000004  -0.008368   0.000024
     4  C    0.000003  -0.000004   0.000006   0.000025   0.029279  -0.000149
     5  C   -0.000289   0.000125  -0.000021   0.001524  -0.026908   0.000384
     6  N    0.000250  -0.000050   0.000020   0.005296  -0.008497  -0.000232
     7  C   -0.003465   0.017681  -0.000706   0.002234  -0.002617   0.000020
     8  C   -0.058170  -0.066183   0.007027  -0.020144   0.000030   0.000002
     9  C    0.452652   0.420239  -0.045626  -0.047706   0.000005  -0.000009
    10  C   -0.043021  -0.039986   0.435812   0.462687  -0.000684   0.000102
    11  C   -0.016531   0.009834  -0.063306  -0.060550   0.003456   0.000726
    12  C    0.001470  -0.000771   0.016564  -0.013872  -0.092079   0.009251
    13  C   -0.000422   0.000046  -0.000016   0.001993   0.409940  -0.030194
    14  C   -0.000217  -0.000014   0.000091  -0.000497  -0.018616   0.399558
    15  C    0.001352  -0.000039   0.000862   0.000734   0.001113  -0.034699
    16  C   -0.004061   0.000519  -0.007668  -0.001634   0.001771   0.004713
    17  C   -0.001292  -0.009465   0.000107   0.000611   0.000036  -0.000000
    18  C   -0.000411   0.002242  -0.000076   0.000416  -0.000010   0.000000
    19  C    0.000211  -0.000107   0.000029  -0.000106   0.000004  -0.000000
    20  C   -0.000137  -0.000111  -0.000122  -0.000630   0.000077  -0.000002
    21  H   -0.000001  -0.000000   0.000000  -0.000000   0.001204  -0.000093
    22  H    0.000000  -0.000000   0.000000   0.000000   0.000572  -0.000007
    23  H   -0.000000   0.000000  -0.000000   0.000000  -0.001926   0.000336
    24  H    0.000000   0.000000  -0.000000  -0.000000  -0.000613  -0.000002
    25  H   -0.000000  -0.000000   0.000000   0.000000   0.000310  -0.000000
    26  H    0.000000  -0.000000   0.000000  -0.000000   0.000609  -0.000002
    27  H    0.000013  -0.000001  -0.000000  -0.000003  -0.003087  -0.000017
    28  H    0.000010  -0.000001   0.000000   0.000003   0.000130   0.000000
    29  H    0.000011  -0.000006  -0.000009  -0.000197   0.000394  -0.000001
    30  H    0.000013  -0.000002  -0.000007  -0.000031  -0.013140  -0.000044
    31  H    0.512478  -0.024173   0.003575   0.003728  -0.000029  -0.000006
    32  H   -0.024173   0.552837  -0.009469   0.003834  -0.000001   0.000000
    33  H    0.003575  -0.009469   0.528533  -0.015552   0.000014  -0.000002
    34  H    0.003728   0.003834  -0.015552   0.493437   0.000035  -0.000004
    35  H   -0.000029  -0.000001   0.000014   0.000035   0.662134  -0.007954
    36  H   -0.000006   0.000000  -0.000002  -0.000004  -0.007954   0.526870
    37  H    0.000016  -0.000002  -0.000066   0.000017  -0.000313  -0.003998
    38  H    0.000313  -0.000127   0.003777  -0.000203   0.000114  -0.000411
    39  H    0.000045   0.004583  -0.000048   0.000044   0.000000  -0.000000
    40  H    0.000005  -0.000074  -0.000001   0.000001   0.000000   0.000000
    41  H   -0.000002  -0.000004   0.000000  -0.000000   0.000000  -0.000000
    42  H    0.000002   0.000010  -0.000002  -0.000052  -0.000013  -0.000000
              37         38         39         40         41         42
     1  C   -0.000002   0.000000   0.000000  -0.000000   0.000000   0.000001
     2  N    0.000003  -0.000000   0.000000  -0.000000   0.000000  -0.000063
     3  C    0.000000   0.000000   0.000000  -0.000000  -0.000005   0.001510
     4  C   -0.000003  -0.000002  -0.000003   0.000005   0.000117  -0.021457
     5  C    0.000005   0.000029   0.000054  -0.000006   0.000075   0.006875
     6  N    0.000022  -0.000253  -0.000175   0.000029  -0.000222  -0.004305
     7  C   -0.000006  -0.000066   0.020307  -0.000733   0.006587  -0.048191
     8  C   -0.000001   0.000078  -0.054513   0.007580   0.001827  -0.002822
     9  C    0.000045  -0.000336  -0.012362  -0.000376   0.000121  -0.000226
    10  C   -0.000235  -0.006117   0.000656   0.000053  -0.000013  -0.000037
    11  C    0.009886  -0.044704  -0.000108  -0.000006  -0.000000   0.000330
    12  C   -0.002263   0.015300   0.000081  -0.000002   0.000025  -0.000050
    13  C    0.010270  -0.000347   0.000009   0.000000  -0.000002  -0.000339
    14  C   -0.045288   0.004697  -0.000000  -0.000000  -0.000000   0.000011
    15  C    0.421408  -0.031852  -0.000000   0.000000  -0.000000  -0.000002
    16  C   -0.043820   0.400456  -0.000012  -0.000000   0.000000   0.000004
    17  C   -0.000000   0.000005   0.406319  -0.039562   0.003687   0.003225
    18  C    0.000000  -0.000001  -0.031318   0.415626  -0.031845  -0.000560
    19  C   -0.000000   0.000000   0.004895  -0.038730   0.397922  -0.004852
    20  C   -0.000000   0.000000  -0.000674   0.007716  -0.028694   0.406696
    21  H   -0.000002   0.000000   0.000000  -0.000000   0.000000   0.000001
    22  H    0.000000  -0.000000   0.000000  -0.000000   0.000000  -0.000001
    23  H   -0.000001  -0.000000  -0.000000   0.000000  -0.000000   0.000000
    24  H   -0.000000   0.000000   0.000000  -0.000000  -0.000000   0.000004
    25  H    0.000000  -0.000000  -0.000000   0.000000   0.000000  -0.000095
    26  H    0.000000   0.000000   0.000000  -0.000000  -0.000001   0.000321
    27  H    0.000002  -0.000000  -0.000000  -0.000000  -0.000006   0.001542
    28  H   -0.000000   0.000000  -0.000000  -0.000002   0.000211  -0.004976
    29  H    0.000000   0.000000  -0.000002   0.000002  -0.000075  -0.002229
    30  H    0.000005  -0.000002  -0.000000  -0.000000   0.000001   0.001449
    31  H    0.000016   0.000313   0.000045   0.000005  -0.000002   0.000002
    32  H   -0.000002  -0.000127   0.004583  -0.000074  -0.000004   0.000010
    33  H   -0.000066   0.003777  -0.000048  -0.000001   0.000000  -0.000002
    34  H    0.000017  -0.000203   0.000044   0.000001  -0.000000  -0.000052
    35  H   -0.000313   0.000114   0.000000   0.000000   0.000000  -0.000013
    36  H   -0.003998  -0.000411  -0.000000   0.000000  -0.000000  -0.000000
    37  H    0.521568  -0.004185  -0.000000   0.000000   0.000000   0.000000
    38  H   -0.004185   0.530462  -0.000000  -0.000000   0.000000   0.000000
    39  H   -0.000000  -0.000000   0.537170  -0.004085  -0.000416   0.000075
    40  H    0.000000  -0.000000  -0.004085   0.520377  -0.003666  -0.000329
    41  H    0.000000   0.000000  -0.000416  -0.003666   0.524176  -0.004781
    42  H    0.000000   0.000000   0.000075  -0.000329  -0.004781   0.517564
 Mulliken charges:
               1
     1  C   -0.342671
     2  N   -0.374515
     3  C   -0.223489
     4  C   -0.332881
     5  C   -0.345699
     6  N   -0.140163
     7  C    0.172961
     8  C    0.028775
     9  C   -0.314984
    10  C   -0.380601
    11  C    0.106629
    12  C    0.083295
    13  C   -0.062558
    14  C   -0.219398
    15  C   -0.147269
    16  C   -0.168277
    17  C   -0.161136
    18  C   -0.181488
    19  C   -0.176791
    20  C   -0.218528
    21  H    0.151268
    22  H    0.133513
    23  H    0.151599
    24  H    0.213447
    25  H    0.148990
    26  H    0.152541
    27  H    0.206919
    28  H    0.152007
    29  H    0.187434
    30  H    0.215862
    31  H    0.176077
    32  H    0.138641
    33  H    0.146281
    34  H    0.184566
    35  H    0.076833
    36  H    0.136094
    37  H    0.136938
    38  H    0.133373
    39  H    0.129479
    40  H    0.136179
    41  H    0.134984
    42  H    0.155762
 Sum of Mulliken charges =  -0.00000
 Mulliken charges with hydrogens summed into heavy atoms:
               1
     1  C    0.093708
     2  N   -0.161068
     3  C    0.078042
     4  C    0.026045
     5  C    0.057596
     6  N   -0.140163
     7  C    0.172961
     8  C    0.028775
     9  C   -0.000266
    10  C   -0.049754
    11  C    0.106629
    12  C    0.083295
    13  C    0.014275
    14  C   -0.083303
    15  C   -0.010330
    16  C   -0.034904
    17  C   -0.031656
    18  C   -0.045309
    19  C   -0.041807
    20  C   -0.062765
 Electronic spatial extent (au):  <R**2>=           5969.1702
 Charge=              0.0000 electrons
 Dipole moment (field-independent basis, Debye):
    X=              1.9368    Y=             -1.1070    Z=              0.2289  Tot=              2.2425
 Quadrupole moment (field-independent basis, Debye-Ang):
   XX=           -108.3468   YY=           -112.7403   ZZ=           -125.4060
   XY=             -8.0719   XZ=              0.6103   YZ=             -2.7846
 Traceless Quadrupole moment (field-independent basis, Debye-Ang):
   XX=              7.1509   YY=              2.7574   ZZ=             -9.9083
   XY=             -8.0719   XZ=              0.6103   YZ=             -2.7846
 Octapole moment (field-independent basis, Debye-Ang**2):
  XXX=             55.4099  YYY=             -4.2115  ZZZ=              7.3403  XYY=              5.6867
  XXY=            -10.4574  XXZ=             -9.4164  XZZ=             13.9859  YZZ=             -7.9469
  YYZ=              6.6021  XYZ=            -10.5000
 Hexadecapole moment (field-independent basis, Debye-Ang**3):
 XXXX=          -4277.3108 YYYY=          -3085.3340 ZZZZ=           -385.4780 XXXY=            -90.8781
 XXXZ=             82.9059 YYYX=             -6.0225 YYYZ=            -25.6949 ZZZX=              5.6543
 ZZZY=            -10.9484 XXYY=          -1234.0285 XXZZ=           -854.4016 YYZZ=           -647.5694
 XXYZ=            -20.4988 YYXZ=             -4.1929 ZZXY=            -44.0595
 N-N= 1.538455805974D+03 E-N=-4.952603923441D+03  KE= 8.040873407854D+02
 Unable to Open any file for archive entry.
 1\1\GINC-NOTCH270\SP\RM062X\def2TZVP\C18H22N2\U6032257\23-Sep-2022\0\\
 # M062X/def2tzvp int=(grid=ultrafine) nmr=giao guess=read geom=check\\
 SecN5.xyz\\0,1\C,0,-1.932115141,-1.3787979404,3.5648008036\N,0,-1.1989
 051928,-2.556959653,3.114456189\C,0,0.2526885742,-2.4433356533,3.27593
 41125\C,0,0.8934241625,-1.7044308839,2.096452156\C,0,0.8440229481,-2.5
 553883261,0.8120613962\N,0,0.9759070889,-1.8152636803,-0.453492434\C,0
 ,2.2679422111,-1.3404931773,-0.798277275\C,0,2.6028559597,-0.605274069
 ,-1.9715198037\C,0,1.6647102839,-0.3366520245,-3.1238830204\C,0,0.7293
 251475,-1.5242856477,-3.4014208199\C,0,-0.4430159762,-1.4409441691,-2.
 4746532598\C,0,-0.2690278985,-1.4990158662,-1.075778902\C,0,-1.4112800
 271,-1.3319704789,-0.2661635182\C,0,-2.6703737751,-1.108188068,-0.8135
 863889\C,0,-2.8351281234,-1.03463395,-2.1933909299\C,0,-1.7142291004,-
 1.1956372308,-3.0018717654\C,0,3.920375219,-0.1638678988,-2.1461020811
 \C,0,4.9434813706,-0.4169753516,-1.2413232091\C,0,4.6355504956,-1.1810
 258217,-0.1228463161\C,0,3.3374264597,-1.6290896929,0.0854221797\H,0,-
 1.6955418619,-0.5217729892,2.9259175982\H,0,-1.7112423757,-1.084785791
 4,4.6063795296\H,0,-3.0066415952,-1.5622270099,3.4769403439\H,0,-1.534
 9375419,-3.3698054074,3.6203509712\H,0,0.5275930292,-1.9403498143,4.22
 03029223\H,0,0.6680097496,-3.4575115807,3.3286404021\H,0,0.3764249524,
 -0.7552450342,1.9244651956\H,0,1.9207413081,-1.4354067531,2.3551777143
 \H,0,1.6116247381,-3.335297312,0.8473235242\H,0,-0.1118532027,-3.07622
 02379,0.7828328175\H,0,1.0498147734,0.5549781825,-2.9492307489\H,0,2.2
 740733521,-0.1227812626,-4.0076647764\H,0,0.3775392273,-1.4981183309,-
 4.4368921149\H,0,1.2834883739,-2.4609591251,-3.2682470912\H,0,-1.33435
 35659,-1.4026384141,0.8081110369\H,0,-3.5199149816,-0.9888914182,-0.14
 78204926\H,0,-3.8120016814,-0.8595129493,-2.6324080684\H,0,-1.81611975
 9,-1.145360366,-4.0827229409\H,0,4.1419725091,0.3918056729,-3.05350524
 71\H,0,5.9485367767,-0.0498492604,-1.4196392239\H,0,5.4006064396,-1.43
 75159169,0.6040215242\H,0,3.1668466497,-2.2178052983,0.9711500109\\Ver
 sion=ES64L-G16RevC.01\State=1-A\HF=-808.5906343\RMSD=3.447e-09\Dipole=
 -0.2668128,-0.2683993,0.7969859\Quadrupole=-2.008989,-6.0747654,8.0837
 544,-0.2786983,-2.2016332,-5.0800209\PG=C01 [X(C18H22N2)]\\@
 The archive entry for this job was punched.


 IF YOU WANT TO LEARN FROM THE THEORETICAL PHYSICISTS ABOUT THE
 METHODS WHICH THEY USE, I ADVISE YOU TO FOLLOW THIS PRINCIPLE VERY STRICTLY:
 DON'T LISTEN TO THEIR WORDS; PAY ATTENTION, INSTEAD, TO THEIR ACTIONS.
 -- A.EINSTEIN, 1934
 Job cpu time:       0 days  3 hours  9 minutes 40.6 seconds.
 Elapsed time:       0 days  0 hours  3 minutes 30.3 seconds.
 File lengths (MBytes):  RWF=    318 Int=      0 D2E=      0 Chk=     53 Scr=      1
 Normal termination of Gaussian 16 at Fri Sep 23 16:33:59 2022.
