 Entering Gaussian System, Link 0=/uufs/chpc.utah.edu/sys/installdir/gaussian16/C01/AVX2/g16/g16
 Input=SecN1_conf-2.com
 Output=SecN1_conf-2.log
 Initial command:
 /uufs/chpc.utah.edu/sys/installdir/gaussian16/C01/AVX2/g16/l1.exe "/scratch/general/lustre/u6032257/5776720/notchpeak.peaks/Gau-2005129.inp" -scrdir="/scratch/general/lustre/u6032257/5776720/notchpeak.peaks/"
 Entering Link 1 = /uufs/chpc.utah.edu/sys/installdir/gaussian16/C01/AVX2/g16/l1.exe PID=   2005131.
  
 Copyright (c) 1988-2019, Gaussian, Inc.  All Rights Reserved.
  
 This is part of the Gaussian(R) 16 program.  It is based on
 the Gaussian(R) 09 system (copyright 2009, Gaussian, Inc.),
 the Gaussian(R) 03 system (copyright 2003, Gaussian, Inc.),
 the Gaussian(R) 98 system (copyright 1998, Gaussian, Inc.),
 the Gaussian(R) 94 system (copyright 1995, Gaussian, Inc.),
 the Gaussian 92(TM) system (copyright 1992, Gaussian, Inc.),
 the Gaussian 90(TM) system (copyright 1990, Gaussian, Inc.),
 the Gaussian 88(TM) system (copyright 1988, Gaussian, Inc.),
 the Gaussian 86(TM) system (copyright 1986, Carnegie Mellon
 University), and the Gaussian 82(TM) system (copyright 1983,
 Carnegie Mellon University). Gaussian is a federally registered
 trademark of Gaussian, Inc.
  
 This software contains proprietary and confidential information,
 including trade secrets, belonging to Gaussian, Inc.
  
 This software is provided under written license and may be
 used, copied, transmitted, or stored only in accord with that
 written license.
  
 The following legend is applicable only to US Government
 contracts under FAR:
  
                    RESTRICTED RIGHTS LEGEND
  
 Use, reproduction and disclosure by the US Government is
 subject to restrictions as set forth in subparagraphs (a)
 and (c) of the Commercial Computer Software - Restricted
 Rights clause in FAR 52.227-19.
  
 Gaussian, Inc.
 340 Quinnipiac St., Bldg. 40, Wallingford CT 06492
  
  
 ---------------------------------------------------------------
 Warning -- This program may not be used in any manner that
 competes with the business of Gaussian, Inc. or will provide
 assistance to any competitor of Gaussian, Inc.  The licensee
 of this program is prohibited from giving any competitor of
 Gaussian, Inc. access to this program.  By using this program,
 the user acknowledges that Gaussian, Inc. is engaged in the
 business of creating and licensing software in the field of
 computational chemistry and represents and warrants to the
 licensee that it is not a competitor of Gaussian, Inc. and that
 it will not use this program in any manner prohibited above.
 ---------------------------------------------------------------
  

 Cite this work as:
 Gaussian 16, Revision C.01,
 M. J. Frisch, G. W. Trucks, H. B. Schlegel, G. E. Scuseria, 
 M. A. Robb, J. R. Cheeseman, G. Scalmani, V. Barone, 
 G. A. Petersson, H. Nakatsuji, X. Li, M. Caricato, A. V. Marenich, 
 J. Bloino, B. G. Janesko, R. Gomperts, B. Mennucci, H. P. Hratchian, 
 J. V. Ortiz, A. F. Izmaylov, J. L. Sonnenberg, D. Williams-Young, 
 F. Ding, F. Lipparini, F. Egidi, J. Goings, B. Peng, A. Petrone, 
 T. Henderson, D. Ranasinghe, V. G. Zakrzewski, J. Gao, N. Rega, 
 G. Zheng, W. Liang, M. Hada, M. Ehara, K. Toyota, R. Fukuda, 
 J. Hasegawa, M. Ishida, T. Nakajima, Y. Honda, O. Kitao, H. Nakai, 
 T. Vreven, K. Throssell, J. A. Montgomery, Jr., J. E. Peralta, 
 F. Ogliaro, M. J. Bearpark, J. J. Heyd, E. N. Brothers, K. N. Kudin, 
 V. N. Staroverov, T. A. Keith, R. Kobayashi, J. Normand, 
 K. Raghavachari, A. P. Rendell, J. C. Burant, S. S. Iyengar, 
 J. Tomasi, M. Cossi, J. M. Millam, M. Klene, C. Adamo, R. Cammi, 
 J. W. Ochterski, R. L. Martin, K. Morokuma, O. Farkas, 
 J. B. Foresman, and D. J. Fox, Gaussian, Inc., Wallingford CT, 2019.
 
 ******************************************
 Gaussian 16:  ES64L-G16RevC.01  3-Jul-2019
                25-Sep-2022 
 ******************************************
 %NProcShared=40
 Will use up to   40 processors via shared memory.
 %mem=16GB
 %chk=SecN1_conf-2.chk
 ----------------------------------------------------------------------
 # B3LYP/6-31G(d,p) empiricaldispersion=GD3BJ int=(grid=ultrafine) opt 
 freq=noraman
 ----------------------------------------------------------------------
 1/18=20,19=15,26=4,38=1/1,3;
 2/9=110,12=2,17=6,18=5,40=1/2;
 3/5=1,6=6,7=101,11=2,25=1,30=1,71=1,74=-5,75=-5,124=41/1,2,3;
 4//1;
 5/5=2,38=5/2;
 6/7=2,8=2,9=2,10=2,28=1/1;
 7//1,2,3,16;
 1/18=20,19=15,26=4/3(2);
 2/9=110/2;
 99//99;
 2/9=110/2;
 3/5=1,6=6,7=101,11=2,25=1,30=1,71=1,74=-5,75=-5,124=41/1,2,3;
 4/5=5,16=3,69=1/1;
 5/5=2,38=5/2;
 7//1,2,3,16;
 1/18=20,19=15,26=4/3(-5);
 2/9=110/2;
 6/7=2,8=2,9=2,10=2,19=2,28=1/1;
 99/9=1/99;
 ---------
 SecN1.xyz
 ---------
 Symbolic Z-matrix:
 Charge =  0 Multiplicity = 1
 C                    -0.4925   -0.2301   -1.1539 
 C                    -0.1379    1.228    -0.7682 
 O                     0.9336    1.2471    0.1743 
 C                     0.6447    0.4982    1.3543 
 C                     0.2989   -0.9682    0.9926 
 N                    -0.804    -1.0449    0.0269 
 H                    -1.3448   -0.2393   -1.8351 
 H                     0.3405   -0.6806   -1.6977 
 H                     0.1709    1.7806   -1.656 
 H                    -1.008     1.75     -0.3661 
 H                     1.5203    0.5223    2.0036 
 H                    -0.1676    0.9664    1.913 
 H                     0.0301   -1.5214    1.8938 
 H                     1.18     -1.4635    0.5792 
 H                    -1.6363   -0.6689    0.463 
 

 GradGradGradGradGradGradGradGradGradGradGradGradGradGradGradGradGradGrad
 Berny optimization.
 Initialization pass.
                           ----------------------------
                           !    Initial Parameters    !
                           ! (Angstroms and Degrees)  !
 --------------------------                            --------------------------
 ! Name  Definition              Value          Derivative Info.                !
 --------------------------------------------------------------------------------
 ! R1    R(1,2)                  1.5494         estimate D2E/DX2                !
 ! R2    R(1,6)                  1.4681         estimate D2E/DX2                !
 ! R3    R(1,7)                  1.0911         estimate D2E/DX2                !
 ! R4    R(1,8)                  1.092          estimate D2E/DX2                !
 ! R5    R(2,3)                  1.4272         estimate D2E/DX2                !
 ! R6    R(2,9)                  1.0904         estimate D2E/DX2                !
 ! R7    R(2,10)                 1.0914         estimate D2E/DX2                !
 ! R8    R(3,4)                  1.4271         estimate D2E/DX2                !
 ! R9    R(4,5)                  1.5494         estimate D2E/DX2                !
 ! R10   R(4,11)                 1.0903         estimate D2E/DX2                !
 ! R11   R(4,12)                 1.0914         estimate D2E/DX2                !
 ! R12   R(5,6)                  1.4679         estimate D2E/DX2                !
 ! R13   R(5,13)                 1.0911         estimate D2E/DX2                !
 ! R14   R(5,14)                 1.092          estimate D2E/DX2                !
 ! R15   R(6,15)                 1.0121         estimate D2E/DX2                !
 ! A1    A(2,1,6)              111.7559         estimate D2E/DX2                !
 ! A2    A(2,1,7)              110.0064         estimate D2E/DX2                !
 ! A3    A(2,1,8)              109.7315         estimate D2E/DX2                !
 ! A4    A(6,1,7)              109.3737         estimate D2E/DX2                !
 ! A5    A(6,1,8)              109.4763         estimate D2E/DX2                !
 ! A6    A(7,1,8)              106.348          estimate D2E/DX2                !
 ! A7    A(1,2,3)              110.4155         estimate D2E/DX2                !
 ! A8    A(1,2,9)              109.8202         estimate D2E/DX2                !
 ! A9    A(1,2,10)             111.0604         estimate D2E/DX2                !
 ! A10   A(3,2,9)              108.5601         estimate D2E/DX2                !
 ! A11   A(3,2,10)             110.4159         estimate D2E/DX2                !
 ! A12   A(9,2,10)             106.4605         estimate D2E/DX2                !
 ! A13   A(2,3,4)              112.77           estimate D2E/DX2                !
 ! A14   A(3,4,5)              110.4139         estimate D2E/DX2                !
 ! A15   A(3,4,11)             108.5551         estimate D2E/DX2                !
 ! A16   A(3,4,12)             110.4145         estimate D2E/DX2                !
 ! A17   A(5,4,11)             109.8255         estimate D2E/DX2                !
 ! A18   A(5,4,12)             111.0628         estimate D2E/DX2                !
 ! A19   A(11,4,12)            106.4608         estimate D2E/DX2                !
 ! A20   A(4,5,6)              111.7589         estimate D2E/DX2                !
 ! A21   A(4,5,13)             110.0            estimate D2E/DX2                !
 ! A22   A(4,5,14)             109.7277         estimate D2E/DX2                !
 ! A23   A(6,5,13)             109.3772         estimate D2E/DX2                !
 ! A24   A(6,5,14)             109.479          estimate D2E/DX2                !
 ! A25   A(13,5,14)            106.3492         estimate D2E/DX2                !
 ! A26   A(1,6,5)              109.9204         estimate D2E/DX2                !
 ! A27   A(1,6,15)             108.3536         estimate D2E/DX2                !
 ! A28   A(5,6,15)             108.36           estimate D2E/DX2                !
 ! D1    D(6,1,2,3)             55.4426         estimate D2E/DX2                !
 ! D2    D(6,1,2,9)            175.1235         estimate D2E/DX2                !
 ! D3    D(6,1,2,10)           -67.3897         estimate D2E/DX2                !
 ! D4    D(7,1,2,3)            177.1385         estimate D2E/DX2                !
 ! D5    D(7,1,2,9)            -63.1806         estimate D2E/DX2                !
 ! D6    D(7,1,2,10)            54.3063         estimate D2E/DX2                !
 ! D7    D(8,1,2,3)            -66.1933         estimate D2E/DX2                !
 ! D8    D(8,1,2,9)             53.4877         estimate D2E/DX2                !
 ! D9    D(8,1,2,10)           170.9745         estimate D2E/DX2                !
 ! D10   D(2,1,6,5)            -54.1681         estimate D2E/DX2                !
 ! D11   D(2,1,6,15)            64.0752         estimate D2E/DX2                !
 ! D12   D(7,1,6,5)           -176.2281         estimate D2E/DX2                !
 ! D13   D(7,1,6,15)           -57.9848         estimate D2E/DX2                !
 ! D14   D(8,1,6,5)             67.6149         estimate D2E/DX2                !
 ! D15   D(8,1,6,15)          -174.1418         estimate D2E/DX2                !
 ! D16   D(1,2,3,4)            -57.1026         estimate D2E/DX2                !
 ! D17   D(9,2,3,4)           -177.5413         estimate D2E/DX2                !
 ! D18   D(10,2,3,4)            66.1051         estimate D2E/DX2                !
 ! D19   D(2,3,4,5)             57.0999         estimate D2E/DX2                !
 ! D20   D(2,3,4,11)           177.541          estimate D2E/DX2                !
 ! D21   D(2,3,4,12)           -66.1088         estimate D2E/DX2                !
 ! D22   D(3,4,5,6)            -55.4429         estimate D2E/DX2                !
 ! D23   D(3,4,5,13)          -177.1407         estimate D2E/DX2                !
 ! D24   D(3,4,5,14)            66.1957         estimate D2E/DX2                !
 ! D25   D(11,4,5,6)          -175.1199         estimate D2E/DX2                !
 ! D26   D(11,4,5,13)           63.1823         estimate D2E/DX2                !
 ! D27   D(11,4,5,14)          -53.4813         estimate D2E/DX2                !
 ! D28   D(12,4,5,6)            67.3881         estimate D2E/DX2                !
 ! D29   D(12,4,5,13)          -54.3097         estimate D2E/DX2                !
 ! D30   D(12,4,5,14)         -170.9733         estimate D2E/DX2                !
 ! D31   D(4,5,6,1)             54.168          estimate D2E/DX2                !
 ! D32   D(4,5,6,15)           -64.0713         estimate D2E/DX2                !
 ! D33   D(13,5,6,1)           176.2242         estimate D2E/DX2                !
 ! D34   D(13,5,6,15)           57.9849         estimate D2E/DX2                !
 ! D35   D(14,5,6,1)           -67.6139         estimate D2E/DX2                !
 ! D36   D(14,5,6,15)          174.1468         estimate D2E/DX2                !
 --------------------------------------------------------------------------------
 Trust Radius=3.00D-01 FncErr=1.00D-07 GrdErr=1.00D-06 EigMax=2.50D+02 EigMin=1.00D-04
 Number of steps in this run=     89 maximum allowed number of steps=    100.
 GradGradGradGradGradGradGradGradGradGradGradGradGradGradGradGradGradGrad

                          Input orientation:                          
 ---------------------------------------------------------------------
 Center     Atomic      Atomic             Coordinates (Angstroms)
 Number     Number       Type             X           Y           Z
 ---------------------------------------------------------------------
      1          6           0       -0.492500   -0.230100   -1.153900
      2          6           0       -0.137900    1.228000   -0.768200
      3          8           0        0.933600    1.247100    0.174300
      4          6           0        0.644700    0.498200    1.354300
      5          6           0        0.298900   -0.968200    0.992600
      6          7           0       -0.804000   -1.044900    0.026900
      7          1           0       -1.344800   -0.239300   -1.835100
      8          1           0        0.340500   -0.680600   -1.697700
      9          1           0        0.170900    1.780600   -1.656000
     10          1           0       -1.008000    1.750000   -0.366100
     11          1           0        1.520300    0.522300    2.003600
     12          1           0       -0.167600    0.966400    1.913000
     13          1           0        0.030100   -1.521400    1.893800
     14          1           0        1.180000   -1.463500    0.579200
     15          1           0       -1.636300   -0.668900    0.463000
 ---------------------------------------------------------------------
                    Distance matrix (angstroms):
                    1          2          3          4          5
     1  C    0.000000
     2  C    1.549374   0.000000
     3  O    2.445403   1.427159   0.000000
     4  C    2.848633   2.376989   1.427135   0.000000
     5  C    2.403865   2.848597   2.445407   1.549430   0.000000
     6  N    1.468067   2.498389   2.879973   2.498375   1.467940
     7  H    1.091116   2.178957   3.382038   3.830703   3.350960
     8  H    1.092043   2.176141   2.751759   3.285850   2.705949
     9  H    2.176033   1.090373   2.053371   3.306198   3.819341
    10  H    2.192525   1.091441   2.077198   2.694104   3.307970
    11  H    3.819329   3.306133   2.053263   1.090342   2.176127
    12  H    3.308028   2.694095   2.077140   1.091416   2.192587
    13  H    3.350976   3.830622   3.381950   2.178894   1.091075
    14  H    2.705950   3.285806   2.751728   2.176142   1.092043
    15  H    2.028593   2.712800   3.218507   2.712840   2.028560
                    6          7          8          9         10
     6  N    0.000000
     7  H    2.099643   0.000000
     8  H    2.101628   1.747530   0.000000
     9  H    3.430165   2.531683   2.467389   0.000000
    10  H    2.829758   2.495738   3.082114   1.747737   0.000000
    11  H    3.430135   4.850201   4.066758   4.098399   3.676279
    12  H    2.829789   4.109473   4.000991   3.676311   2.552371
    13  H    2.099545   4.175982   3.701644   4.850166   4.109362
    14  H    2.101551   3.701638   2.549895   4.066766   4.000940
    15  H    1.012068   2.356012   2.928566   3.708933   2.633106
                   11         12         13         14         15
    11  H    0.000000
    12  H    1.747696   0.000000
    13  H    2.531691   2.495717   0.000000
    14  H    2.467412   3.082120   1.747511   0.000000
    15  H    3.708980   2.633208   2.356021   2.928555   0.000000
 Stoichiometry    C4H9NO
 Framework group  C1[X(C4H9NO)]
 Deg. of freedom    39
 Full point group                 C1      NOp   1
 Largest Abelian subgroup         C1      NOp   1
 Largest concise Abelian subgroup C1      NOp   1
                         Standard orientation:                         
 ---------------------------------------------------------------------
 Center     Atomic      Atomic             Coordinates (Angstroms)
 Number     Number       Type             X           Y           Z
 ---------------------------------------------------------------------
      1          6           0        1.202010    0.735296   -0.231433
      2          6           0        1.188434   -0.754507    0.193848
      3          8           0       -0.000113   -1.393881   -0.270199
      4          6           0       -1.188555   -0.754355    0.193835
      5          6           0       -1.201855    0.735515   -0.231424
      6          7           0        0.000066    1.442913    0.226639
      7          1           0        2.088095    1.229900    0.169509
      8          1           0        1.275027    0.807711   -1.318623
      9          1           0        2.049146   -1.269067   -0.234307
     10          1           0        1.276112   -0.853943    1.277207
     11          1           0       -2.049252   -1.268840   -0.234361
     12          1           0       -1.276259   -0.853846    1.277162
     13          1           0       -2.087887    1.230132    0.169508
     14          1           0       -1.274868    0.807898   -1.318617
     15          1           0        0.000120    1.449013    1.238689
 ---------------------------------------------------------------------
 Rotational constants (GHZ):           4.8164672           4.5686560           2.6535047
 Standard basis: 6-31G(d,p) (6D, 7F)
 There are   135 symmetry adapted cartesian basis functions of A   symmetry.
 There are   135 symmetry adapted basis functions of A   symmetry.
   135 basis functions,   231 primitive gaussians,   135 cartesian basis functions
    24 alpha electrons       24 beta electrons
       nuclear repulsion energy       261.8792154435 Hartrees.
 NAtoms=   15 NActive=   15 NUniq=   15 SFac= 1.00D+00 NAtFMM=   60 NAOKFM=F Big=F
 Integral buffers will be    131072 words long.
 Raffenetti 2 integral format.
 Two-electron integral symmetry is turned on.
 Nuclear repulsion after empirical dispersion term =      261.8591066304 Hartrees.
 One-electron integrals computed using PRISM.
 NBasis=   135 RedAO= T EigKep=  3.84D-03  NBF=   135
 NBsUse=   135 1.00D-06 EigRej= -1.00D+00 NBFU=   135
 ExpMin= 1.61D-01 ExpMax= 5.48D+03 ExpMxC= 8.25D+02 IAcc=3 IRadAn=         5 AccDes= 0.00D+00
 Harris functional with IExCor=  402 and IRadAn=       5 diagonalized for initial guess.
 HarFok:  IExCor=  402 AccDes= 0.00D+00 IRadAn=         5 IDoV= 1 UseB2=F ITyADJ=14
 ICtDFT=  3500011 ScaDFX=  1.000000  1.000000  1.000000  1.000000
 FoFCou: FMM=F IPFlag=           0 FMFlag=      100000 FMFlg1=           0
         NFxFlg=           0 DoJE=T BraDBF=F KetDBF=T FulRan=T
         wScrn=  0.000000 ICntrl=       500 IOpCl=  0 I1Cent=   200000004 NGrid=           0
         NMat0=    1 NMatS0=      1 NMatT0=    0 NMatD0=    1 NMtDS0=    0 NMtDT0=    0
 Petite list used in FoFCou.
 Requested convergence on RMS density matrix=1.00D-08 within 128 cycles.
 Requested convergence on MAX density matrix=1.00D-06.
 Requested convergence on             energy=1.00D-06.
 No special actions if energy rises.
 Integral accuracy reduced to 1.0D-05 until final iterations.
 Initial convergence to 1.0D-05 achieved.  Increase integral accuracy.
 SCF Done:  E(RB3LYP) =  -287.824523843     A.U. after   13 cycles
            NFock= 13  Conv=0.30D-08     -V/T= 2.0093

 **********************************************************************

            Population analysis using the SCF Density.

 **********************************************************************

 Orbital symmetries:
       Occupied  (A) (A) (A) (A) (A) (A) (A) (A) (A) (A) (A) (A)
                 (A) (A) (A) (A) (A) (A) (A) (A) (A) (A) (A) (A)
       Virtual   (A) (A) (A) (A) (A) (A) (A) (A) (A) (A) (A) (A)
                 (A) (A) (A) (A) (A) (A) (A) (A) (A) (A) (A) (A)
                 (A) (A) (A) (A) (A) (A) (A) (A) (A) (A) (A) (A)
                 (A) (A) (A) (A) (A) (A) (A) (A) (A) (A) (A) (A)
                 (A) (A) (A) (A) (A) (A) (A) (A) (A) (A) (A) (A)
                 (A) (A) (A) (A) (A) (A) (A) (A) (A) (A) (A) (A)
                 (A) (A) (A) (A) (A) (A) (A) (A) (A) (A) (A) (A)
                 (A) (A) (A) (A) (A) (A) (A) (A) (A) (A) (A) (A)
                 (A) (A) (A) (A) (A) (A) (A) (A) (A) (A) (A) (A)
                 (A) (A) (A)
 The electronic state is 1-A.
 Alpha  occ. eigenvalues --  -19.14373 -14.31862 -10.22694 -10.22692 -10.20619
 Alpha  occ. eigenvalues --  -10.20618  -1.02639  -0.90020  -0.76396  -0.67294
 Alpha  occ. eigenvalues --   -0.64698  -0.58620  -0.49278  -0.47165  -0.46376
 Alpha  occ. eigenvalues --   -0.45312  -0.44294  -0.38630  -0.36856  -0.35972
 Alpha  occ. eigenvalues --   -0.35134  -0.31624  -0.26845  -0.20765
 Alpha virt. eigenvalues --    0.08551   0.11617   0.13061   0.13167   0.13709
 Alpha virt. eigenvalues --    0.15469   0.16978   0.17462   0.17815   0.18154
 Alpha virt. eigenvalues --    0.23250   0.23740   0.25217   0.26815   0.27763
 Alpha virt. eigenvalues --    0.52610   0.53251   0.53392   0.55556   0.56593
 Alpha virt. eigenvalues --    0.57504   0.58696   0.62138   0.64245   0.65673
 Alpha virt. eigenvalues --    0.75716   0.77946   0.79245   0.80089   0.81175
 Alpha virt. eigenvalues --    0.83417   0.85492   0.86601   0.90172   0.90835
 Alpha virt. eigenvalues --    0.91916   0.92236   0.94340   0.98483   1.00087
 Alpha virt. eigenvalues --    1.08919   1.14914   1.26657   1.28330   1.32507
 Alpha virt. eigenvalues --    1.35652   1.38201   1.40190   1.49297   1.51943
 Alpha virt. eigenvalues --    1.57331   1.63378   1.65676   1.71745   1.79927
 Alpha virt. eigenvalues --    1.81658   1.82101   1.85334   1.93425   1.94539
 Alpha virt. eigenvalues --    1.97309   1.99134   2.00522   2.01924   2.03873
 Alpha virt. eigenvalues --    2.07894   2.10681   2.17485   2.17963   2.19922
 Alpha virt. eigenvalues --    2.22054   2.23906   2.29501   2.31243   2.33705
 Alpha virt. eigenvalues --    2.36832   2.40591   2.41738   2.49170   2.50836
 Alpha virt. eigenvalues --    2.51847   2.58806   2.60743   2.64012   2.67193
 Alpha virt. eigenvalues --    2.73825   2.75211   2.78210   2.82460   2.83638
 Alpha virt. eigenvalues --    2.85871   2.88101   2.95728   2.96661   2.98531
 Alpha virt. eigenvalues --    3.01515   3.23040   3.27974   3.29326   3.32800
 Alpha virt. eigenvalues --    3.38773   3.47041   3.48180   3.50878   3.58056
 Alpha virt. eigenvalues --    3.94578   4.09832   4.36378   4.46889   4.63832
 Alpha virt. eigenvalues --    4.68123
          Condensed to atoms (all electrons):
               1          2          3          4          5          6
     1  C    4.892444   0.348014  -0.046022  -0.014745  -0.052847   0.332507
     2  C    0.348014   4.806755   0.263946  -0.030011  -0.014742  -0.059821
     3  O   -0.046022   0.263946   8.196406   0.263941  -0.046025  -0.006854
     4  C   -0.014745  -0.030011   0.263941   4.806789   0.348022  -0.059829
     5  C   -0.052847  -0.014742  -0.046025   0.348022   4.892365   0.332530
     6  N    0.332507  -0.059821  -0.006854  -0.059829   0.332530   6.763833
     7  H    0.364180  -0.038359   0.003130   0.000087   0.005635  -0.036064
     8  H    0.379866  -0.046310   0.001469  -0.001672  -0.004886  -0.043877
     9  H   -0.032557   0.369175  -0.033068   0.005076  -0.000037   0.005007
    10  H   -0.050329   0.354244  -0.041938  -0.009263  -0.000562  -0.004458
    11  H   -0.000037   0.005077  -0.033075   0.369178  -0.032546   0.005006
    12  H   -0.000562  -0.009265  -0.041940   0.354243  -0.050324  -0.004456
    13  H    0.005637   0.000087   0.003130  -0.038369   0.364184  -0.036070
    14  H   -0.004888  -0.001672   0.001470  -0.046317   0.379867  -0.043883
    15  H   -0.045983  -0.004100  -0.000676  -0.004101  -0.045984   0.337650
               7          8          9         10         11         12
     1  C    0.364180   0.379866  -0.032557  -0.050329  -0.000037  -0.000562
     2  C   -0.038359  -0.046310   0.369175   0.354244   0.005077  -0.009265
     3  O    0.003130   0.001469  -0.033068  -0.041938  -0.033075  -0.041940
     4  C    0.000087  -0.001672   0.005076  -0.009263   0.369178   0.354243
     5  C    0.005635  -0.004886  -0.000037  -0.000562  -0.032546  -0.050324
     6  N   -0.036064  -0.043877   0.005007  -0.004458   0.005006  -0.004456
     7  H    0.640002  -0.030975   0.002114  -0.000064   0.000023   0.000100
     8  H   -0.030975   0.613627  -0.003336   0.006270   0.000024   0.000337
     9  H    0.002114  -0.003336   0.631410  -0.043290  -0.000081  -0.000156
    10  H   -0.000064   0.006270  -0.043290   0.694690  -0.000156   0.012736
    11  H    0.000023   0.000024  -0.000081  -0.000156   0.631404  -0.043293
    12  H    0.000100   0.000337  -0.000156   0.012736  -0.043293   0.694693
    13  H   -0.000158   0.000121   0.000023   0.000100   0.002113  -0.000063
    14  H    0.000121   0.007166   0.000024   0.000337  -0.003335   0.006270
    15  H   -0.004607   0.007267  -0.000048   0.005679  -0.000048   0.005678
              13         14         15
     1  C    0.005637  -0.004888  -0.045983
     2  C    0.000087  -0.001672  -0.004100
     3  O    0.003130   0.001470  -0.000676
     4  C   -0.038369  -0.046317  -0.004101
     5  C    0.364184   0.379867  -0.045984
     6  N   -0.036070  -0.043883   0.337650
     7  H   -0.000158   0.000121  -0.004607
     8  H    0.000121   0.007166   0.007267
     9  H    0.000023   0.000024  -0.000048
    10  H    0.000100   0.000337   0.005679
    11  H    0.002113  -0.003335  -0.000048
    12  H   -0.000063   0.006270   0.005678
    13  H    0.640015  -0.030974  -0.004609
    14  H   -0.030974   0.613644   0.007269
    15  H   -0.004609   0.007269   0.517097
 Mulliken charges:
               1
     1  C   -0.074679
     2  C    0.056981
     3  O   -0.483892
     4  C    0.056971
     5  C   -0.074650
     6  N   -0.481222
     7  H    0.094836
     8  H    0.114908
     9  H    0.099746
    10  H    0.076004
    11  H    0.099745
    12  H    0.076002
    13  H    0.094833
    14  H    0.114900
    15  H    0.229516
 Sum of Mulliken charges =  -0.00000
 Mulliken charges with hydrogens summed into heavy atoms:
               1
     1  C    0.135066
     2  C    0.232731
     3  O   -0.483892
     4  C    0.232718
     5  C    0.135083
     6  N   -0.251706
 Electronic spatial extent (au):  <R**2>=            522.7575
 Charge=             -0.0000 electrons
 Dipole moment (field-independent basis, Debye):
    X=              0.0002    Y=              0.1973    Z=              1.1241  Tot=              1.1413
 Quadrupole moment (field-independent basis, Debye-Ang):
   XX=            -32.8836   YY=            -44.1497   ZZ=            -35.6006
   XY=             -0.0005   XZ=             -0.0000   YZ=              0.0403
 Traceless Quadrupole moment (field-independent basis, Debye-Ang):
   XX=              4.6610   YY=             -6.6050   ZZ=              1.9440
   XY=             -0.0005   XZ=             -0.0000   YZ=              0.0403
 Octapole moment (field-independent basis, Debye-Ang**2):
  XXX=              0.0000  YYY=             -7.9378  ZZZ=              0.9837  XYY=             -0.0002
  XXY=             -2.3540  XXZ=             -0.8310  XZZ=              0.0002  YZZ=              2.0365
  YYZ=              2.9890  XYZ=              0.0002
 Hexadecapole moment (field-independent basis, Debye-Ang**3):
 XXXX=           -301.7533 YYYY=           -319.2278 ZZZZ=            -77.6316 XXXY=              0.0022
 XXXZ=              0.0003 YYYX=             -0.0020 YYYZ=              4.3920 ZZZX=              0.0002
 ZZZY=              3.9181 XXYY=            -92.0608 XXZZ=            -65.2994 YYZZ=            -58.2448
 XXYZ=              2.9946 YYXZ=             -0.0000 ZZXY=              0.0006
 N-N= 2.618591066304D+02 E-N=-1.193902315499D+03  KE= 2.851689437669D+02
 Calling FoFJK, ICntrl=      2127 FMM=F ISym2X=0 I1Cent= 0 IOpClX= 0 NMat=1 NMatS=1 NMatT=0.
 ***** Axes restored to original set *****
 -------------------------------------------------------------------
 Center     Atomic                   Forces (Hartrees/Bohr)
 Number     Number              X              Y              Z
 -------------------------------------------------------------------
      1        6          -0.005035235    0.011748562    0.006505249
      2        6           0.004987133   -0.015273187   -0.003431815
      3        8           0.002746814    0.002726539   -0.000100134
      4        6           0.002830617   -0.013281872   -0.009288805
      5        6          -0.005337343    0.012122927    0.005573052
      6        7           0.010297842   -0.006338169   -0.006036873
      7        1          -0.003759858    0.000271983   -0.001200408
      8        1           0.003766319   -0.001132624    0.001935855
      9        1           0.006170430    0.002725499   -0.000036839
     10        1          -0.007428705    0.000395737    0.004873497
     11        1           0.005417540    0.003427003   -0.002095572
     12        1          -0.008618692    0.001492908    0.001697133
     13        1          -0.002191276   -0.001219188    0.003093230
     14        1           0.001582014    0.000900751   -0.003986503
     15        1          -0.005427600    0.001433132    0.002498934
 -------------------------------------------------------------------
 Cartesian Forces:  Max     0.015273187 RMS     0.005788196

 GradGradGradGradGradGradGradGradGradGradGradGradGradGradGradGradGradGrad
 Berny optimization.
 FormGI is forming the generalized inverse of G from B-inverse, IUseBI=4.
 Internal  Forces:  Max     0.008721406 RMS     0.002963229
 Search for a local minimum.
 Step number   1 out of a maximum of   89
 All quantities printed in internal units (Hartrees-Bohrs-Radians)
 Mixed Optimization -- RFO/linear search
 Second derivative matrix not updated -- first step.
 ITU=  0
     Eigenvalues ---    0.00573   0.00853   0.01365   0.03113   0.03144
     Eigenvalues ---    0.04569   0.04792   0.04898   0.05425   0.05744
     Eigenvalues ---    0.06151   0.06303   0.07620   0.08861   0.09323
     Eigenvalues ---    0.09342   0.10711   0.11470   0.11489   0.11827
     Eigenvalues ---    0.13408   0.16415   0.17149   0.22568   0.26574
     Eigenvalues ---    0.27702   0.34578   0.34578   0.34647   0.34650
     Eigenvalues ---    0.34684   0.34689   0.34744   0.34770   0.34773
     Eigenvalues ---    0.34894   0.40327   0.40373   0.45628
 RFO step:  Lambda=-3.99655764D-03 EMin= 5.73159452D-03
 Linear search not attempted -- first point.
 Iteration  1 RMS(Cart)=  0.02570400 RMS(Int)=  0.00045063
 Iteration  2 RMS(Cart)=  0.00048177 RMS(Int)=  0.00014352
 Iteration  3 RMS(Cart)=  0.00000011 RMS(Int)=  0.00014352
 Variable       Old X    -DE/DX   Delta X   Delta X   Delta X     New X
                                 (Linear)    (Quad)   (Total)
    R1        2.92789  -0.00870   0.00000  -0.03100  -0.03100   2.89689
    R2        2.77424  -0.00194   0.00000  -0.00289  -0.00299   2.77126
    R3        2.06191   0.00368   0.00000   0.01050   0.01050   2.07241
    R4        2.06366   0.00238   0.00000   0.00680   0.00680   2.07046
    R5        2.69694  -0.00398   0.00000  -0.01167  -0.01158   2.68536
    R6        2.06051   0.00316   0.00000   0.00898   0.00898   2.06949
    R7        2.06252   0.00791   0.00000   0.02256   0.02256   2.08509
    R8        2.69689  -0.00396   0.00000  -0.01161  -0.01152   2.68537
    R9        2.92800  -0.00872   0.00000  -0.03107  -0.03107   2.89693
   R10        2.06045   0.00318   0.00000   0.00904   0.00904   2.06948
   R11        2.06248   0.00792   0.00000   0.02261   0.02261   2.08509
   R12        2.77400  -0.00188   0.00000  -0.00273  -0.00282   2.77118
   R13        2.06183   0.00371   0.00000   0.01058   0.01058   2.07241
   R14        2.06366   0.00238   0.00000   0.00680   0.00680   2.07046
   R15        1.91253   0.00607   0.00000   0.01319   0.01319   1.92572
    A1        1.95051   0.00145   0.00000   0.01762   0.01716   1.96766
    A2        1.91997   0.00090   0.00000   0.01062   0.01055   1.93052
    A3        1.91518  -0.00200   0.00000  -0.02281  -0.02272   1.89246
    A4        1.90893  -0.00081   0.00000   0.00296   0.00286   1.91179
    A5        1.91072  -0.00122   0.00000  -0.02927  -0.02927   1.88145
    A6        1.85612   0.00168   0.00000   0.02078   0.02088   1.87701
    A7        1.92711   0.00316   0.00000   0.01421   0.01419   1.94131
    A8        1.91672   0.00385   0.00000   0.02844   0.02857   1.94530
    A9        1.93837  -0.00444   0.00000  -0.02430  -0.02421   1.91416
   A10        1.89473  -0.00560   0.00000  -0.04440  -0.04435   1.85038
   A11        1.92712   0.00073   0.00000  -0.00298  -0.00302   1.92411
   A12        1.85809   0.00223   0.00000   0.02903   0.02903   1.88712
   A13        1.96821  -0.00328   0.00000  -0.02228  -0.02256   1.94565
   A14        1.92709   0.00316   0.00000   0.01423   0.01421   1.94130
   A15        1.89464  -0.00559   0.00000  -0.04430  -0.04426   1.85039
   A16        1.92710   0.00073   0.00000  -0.00295  -0.00298   1.92412
   A17        1.91682   0.00383   0.00000   0.02834   0.02847   1.94529
   A18        1.93841  -0.00445   0.00000  -0.02435  -0.02427   1.91415
   A19        1.85809   0.00223   0.00000   0.02904   0.02903   1.88713
   A20        1.95056   0.00144   0.00000   0.01759   0.01713   1.96769
   A21        1.91986   0.00091   0.00000   0.01070   0.01063   1.93049
   A22        1.91511  -0.00199   0.00000  -0.02280  -0.02271   1.89240
   A23        1.90899  -0.00081   0.00000   0.00295   0.00285   1.91184
   A24        1.91077  -0.00122   0.00000  -0.02928  -0.02928   1.88148
   A25        1.85614   0.00168   0.00000   0.02075   0.02085   1.87700
   A26        1.91847  -0.00245   0.00000   0.00195   0.00124   1.91971
   A27        1.89113   0.00006   0.00000  -0.00225  -0.00206   1.88906
   A28        1.89124   0.00006   0.00000  -0.00231  -0.00212   1.88912
    D1        0.96766   0.00033   0.00000  -0.01141  -0.01167   0.95599
    D2        3.05648  -0.00217   0.00000  -0.03943  -0.03953   3.01695
    D3       -1.17617   0.00027   0.00000  -0.00074  -0.00088  -1.17705
    D4        3.09165   0.00090   0.00000   0.01160   0.01155   3.10320
    D5       -1.10271  -0.00160   0.00000  -0.01641  -0.01631  -1.11902
    D6        0.94782   0.00083   0.00000   0.02228   0.02234   0.97017
    D7       -1.15529   0.00230   0.00000   0.02963   0.02951  -1.12578
    D8        0.93354  -0.00021   0.00000   0.00162   0.00165   0.93518
    D9        2.98407   0.00223   0.00000   0.04031   0.04030   3.02437
   D10       -0.94541   0.00292   0.00000   0.05794   0.05802  -0.88740
   D11        1.11832   0.00163   0.00000   0.05494   0.05495   1.17327
   D12       -3.07576   0.00139   0.00000   0.03074   0.03074  -3.04503
   D13       -1.01203   0.00009   0.00000   0.02774   0.02767  -0.98436
   D14        1.18010   0.00052   0.00000   0.02063   0.02064   1.20074
   D15       -3.03935  -0.00077   0.00000   0.01763   0.01757  -3.02177
   D16       -0.99663   0.00229   0.00000  -0.00714  -0.00727  -1.00389
   D17       -3.09868  -0.00084   0.00000  -0.02278  -0.02265  -3.12133
   D18        1.15375  -0.00067   0.00000  -0.03026  -0.03038   1.12337
   D19        0.99658  -0.00228   0.00000   0.00716   0.00729   1.00387
   D20        3.09868   0.00083   0.00000   0.02275   0.02262   3.12130
   D21       -1.15382   0.00068   0.00000   0.03031   0.03043  -1.12339
   D22       -0.96766  -0.00033   0.00000   0.01145   0.01170  -0.95596
   D23       -3.09169  -0.00090   0.00000  -0.01159  -0.01154  -3.10323
   D24        1.15533  -0.00229   0.00000  -0.02964  -0.02951   1.12582
   D25       -3.05642   0.00217   0.00000   0.03939   0.03950  -3.01692
   D26        1.10274   0.00160   0.00000   0.01636   0.01625   1.11899
   D27       -0.93343   0.00021   0.00000  -0.00169  -0.00172  -0.93515
   D28        1.17614  -0.00026   0.00000   0.00079   0.00093   1.17708
   D29       -0.94788  -0.00083   0.00000  -0.02224  -0.02231  -0.97019
   D30       -2.98405  -0.00222   0.00000  -0.04029  -0.04028  -3.02433
   D31        0.94541  -0.00292   0.00000  -0.05795  -0.05803   0.88738
   D32       -1.11826  -0.00164   0.00000  -0.05498  -0.05499  -1.17325
   D33        3.07569  -0.00138   0.00000  -0.03067  -0.03067   3.04502
   D34        1.01203  -0.00009   0.00000  -0.02770  -0.02764   0.98439
   D35       -1.18009  -0.00052   0.00000  -0.02061  -0.02063  -1.20071
   D36        3.03943   0.00077   0.00000  -0.01765  -0.01760   3.02184
         Item               Value     Threshold  Converged?
 Maximum Force            0.008721     0.000450     NO 
 RMS     Force            0.002963     0.000300     NO 
 Maximum Displacement     0.088497     0.001800     NO 
 RMS     Displacement     0.025817     0.001200     NO 
 Predicted change in Energy=-2.098994D-03
 GradGradGradGradGradGradGradGradGradGradGradGradGradGradGradGradGradGrad

                          Input orientation:                          
 ---------------------------------------------------------------------
 Center     Atomic      Atomic             Coordinates (Angstroms)
 Number     Number       Type             X           Y           Z
 ---------------------------------------------------------------------
      1          6           0       -0.502954   -0.220204   -1.145804
      2          6           0       -0.127059    1.215252   -0.760879
      3          8           0        0.952612    1.234321    0.162851
      4          6           0        0.646305    0.494075    1.336547
      5          6           0        0.287986   -0.957815    0.999382
      6          7           0       -0.797850   -1.060724    0.019161
      7          1           0       -1.361552   -0.224690   -1.828064
      8          1           0        0.343468   -0.669275   -1.677152
      9          1           0        0.209715    1.788274   -1.631240
     10          1           0       -1.005502    1.726972   -0.332011
     11          1           0        1.537686    0.549894    1.970282
     12          1           0       -0.190391    0.966875    1.878624
     13          1           0        0.015818   -1.509114    1.907505
     14          1           0        1.172567   -1.442411    0.571466
     15          1           0       -1.652949   -0.715731    0.453033
 ---------------------------------------------------------------------
                    Distance matrix (angstroms):
                    1          2          3          4          5
     1  C    0.000000
     2  C    1.532970   0.000000
     3  O    2.438626   1.421031   0.000000
     4  C    2.827199   2.348911   1.421038   0.000000
     5  C    2.402390   2.827189   2.438641   1.532989   0.000000
     6  N    1.466487   2.497697   2.889982   2.497696   1.466445
     7  H    1.096672   2.176302   3.383462   3.816133   3.354534
     8  H    1.095639   2.147648   2.716679   3.244607   2.692613
     9  H    2.185756   1.095125   2.019287   3.267005   3.803590
    10  H    2.169403   1.103381   2.078895   2.651903   3.264016
    11  H    3.803585   3.267004   2.019296   1.095124   2.185768
    12  H    3.264050   2.651920   2.078909   1.103380   2.169411
    13  H    3.354566   3.816131   3.383465   2.176298   1.096674
    14  H    2.692615   3.244587   2.716660   2.147622   1.095640
    15  H    2.030841   2.744197   3.267393   2.744229   2.030845
                    6          7          8          9         10
     6  N    0.000000
     7  H    2.104509   0.000000
     8  H    2.081662   1.768480   0.000000
     9  H    3.443226   2.561180   2.461614   0.000000
    10  H    2.817391   2.484739   3.061229   1.780030   0.000000
    11  H    3.443209   4.840764   4.026947   4.033367   3.626827
    12  H    2.817405   4.065832   3.950385   3.626835   2.475695
    13  H    2.104507   4.183464   3.696275   4.840773   4.065806
    14  H    2.081650   3.696262   2.518219   4.026950   3.950348
    15  H    1.019049   2.351476   2.919850   3.752833   2.646182
                   11         12         13         14         15
    11  H    0.000000
    12  H    1.780034   0.000000
    13  H    2.561159   2.484729   0.000000
    14  H    2.461560   3.061205   1.768479   0.000000
    15  H    3.752866   2.646233   2.351538   2.919868   0.000000
 Stoichiometry    C4H9NO
 Framework group  C1[X(C4H9NO)]
 Deg. of freedom    39
 Full point group                 C1      NOp   1
 Largest Abelian subgroup         C1      NOp   1
 Largest concise Abelian subgroup C1      NOp   1
                         Standard orientation:                         
 ---------------------------------------------------------------------
 Center     Atomic      Atomic             Coordinates (Angstroms)
 Number     Number       Type             X           Y           Z
 ---------------------------------------------------------------------
      1          6           0        1.201182    0.725341   -0.221953
      2          6           0        1.174474   -0.748530    0.198747
      3          8           0        0.000044   -1.396402   -0.270622
      4          6           0       -1.174437   -0.748602    0.198738
      5          6           0       -1.201208    0.725293   -0.221940
      6          7           0       -0.000051    1.455778    0.195282
      7          1           0        2.091689    1.224939    0.178156
      8          1           0        1.259089    0.772547   -1.315042
      9          1           0        2.016721   -1.302558   -0.229004
     10          1           0        1.237854   -0.822307    1.297833
     11          1           0       -2.016646   -1.302659   -0.229048
     12          1           0       -1.237841   -0.822392    1.297821
     13          1           0       -2.091775    1.224806    0.178151
     14          1           0       -1.259131    0.772452   -1.315032
     15          1           0       -0.000018    1.514933    1.212613
 ---------------------------------------------------------------------
 Rotational constants (GHZ):           4.8890171           4.5694023           2.6697466
 Standard basis: 6-31G(d,p) (6D, 7F)
 There are   135 symmetry adapted cartesian basis functions of A   symmetry.
 There are   135 symmetry adapted basis functions of A   symmetry.
   135 basis functions,   231 primitive gaussians,   135 cartesian basis functions
    24 alpha electrons       24 beta electrons
       nuclear repulsion energy       262.6751030266 Hartrees.
 NAtoms=   15 NActive=   15 NUniq=   15 SFac= 1.00D+00 NAtFMM=   60 NAOKFM=F Big=F
 Integral buffers will be    131072 words long.
 Raffenetti 2 integral format.
 Two-electron integral symmetry is turned on.
 Nuclear repulsion after empirical dispersion term =      262.6549120890 Hartrees.
 One-electron integrals computed using PRISM.
 NBasis=   135 RedAO= T EigKep=  3.62D-03  NBF=   135
 NBsUse=   135 1.00D-06 EigRej= -1.00D+00 NBFU=   135
 Initial guess from the checkpoint file:  "SecN1_conf-2.chk"
 B after Tr=     0.000000    0.000000   -0.000000
         Rot=    0.999987    0.005143   -0.000002   -0.000049 Ang=   0.59 deg.
 ExpMin= 1.61D-01 ExpMax= 5.48D+03 ExpMxC= 8.25D+02 IAcc=3 IRadAn=         5 AccDes= 0.00D+00
 Harris functional with IExCor=  402 and IRadAn=       5 diagonalized for initial guess.
 HarFok:  IExCor=  402 AccDes= 0.00D+00 IRadAn=         5 IDoV= 1 UseB2=F ITyADJ=14
 ICtDFT=  3500011 ScaDFX=  1.000000  1.000000  1.000000  1.000000
 FoFCou: FMM=F IPFlag=           0 FMFlag=      100000 FMFlg1=           0
         NFxFlg=           0 DoJE=T BraDBF=F KetDBF=T FulRan=T
         wScrn=  0.000000 ICntrl=       500 IOpCl=  0 I1Cent=   200000004 NGrid=           0
         NMat0=    1 NMatS0=      1 NMatT0=    0 NMatD0=    1 NMtDS0=    0 NMtDT0=    0
 Petite list used in FoFCou.
 Requested convergence on RMS density matrix=1.00D-08 within 128 cycles.
 Requested convergence on MAX density matrix=1.00D-06.
 Requested convergence on             energy=1.00D-06.
 No special actions if energy rises.
 Integral accuracy reduced to 1.0D-05 until final iterations.
 Initial convergence to 1.0D-05 achieved.  Increase integral accuracy.
 SCF Done:  E(RB3LYP) =  -287.826493191     A.U. after   10 cycles
            NFock= 10  Conv=0.65D-08     -V/T= 2.0093
 Calling FoFJK, ICntrl=      2127 FMM=F ISym2X=0 I1Cent= 0 IOpClX= 0 NMat=1 NMatS=1 NMatT=0.
 ***** Axes restored to original set *****
 -------------------------------------------------------------------
 Center     Atomic                   Forces (Hartrees/Bohr)
 Number     Number              X              Y              Z
 -------------------------------------------------------------------
      1        6           0.000650918    0.002091021   -0.000641682
      2        6           0.000156110   -0.000436904   -0.003088926
      3        8          -0.000428235   -0.000533586   -0.000020732
      4        6           0.001845712   -0.002021589    0.001500672
      5        6           0.001330556    0.001487999    0.001162778
      6        7          -0.000269381    0.000393015    0.000215655
      7        1           0.000175336    0.000103271    0.000791155
      8        1           0.000549156   -0.000799814   -0.000563556
      9        1          -0.000770126   -0.000164842   -0.000134053
     10        1          -0.000686283    0.000379940    0.000952200
     11        1          -0.000557402   -0.000362313    0.000442122
     12        1          -0.001019957    0.000693832    0.000044838
     13        1          -0.000309116    0.000552012   -0.000519264
     14        1           0.000596858   -0.000850414   -0.000428217
     15        1          -0.001264146   -0.000531629    0.000287010
 -------------------------------------------------------------------
 Cartesian Forces:  Max     0.003088926 RMS     0.000953730

 GradGradGradGradGradGradGradGradGradGradGradGradGradGradGradGradGradGrad
 Berny optimization.
 Using GEDIIS/GDIIS optimizer.
 FormGI is forming the generalized inverse of G from B-inverse, IUseBI=4.
 Internal  Forces:  Max     0.001479694 RMS     0.000560852
 Search for a local minimum.
 Step number   2 out of a maximum of   89
 All quantities printed in internal units (Hartrees-Bohrs-Radians)
 Mixed Optimization -- En-DIIS/RFO-DIIS
 Update second derivatives using D2CorX and points    1    2
 DE= -1.97D-03 DEPred=-2.10D-03 R= 9.38D-01
 TightC=F SS=  1.41D+00  RLast= 2.20D-01 DXNew= 5.0454D-01 6.6073D-01
 Trust test= 9.38D-01 RLast= 2.20D-01 DXMaxT set to 5.05D-01
 ITU=  1  0
 Use linear search instead of GDIIS.
     Eigenvalues ---    0.00566   0.00830   0.01346   0.03097   0.03104
     Eigenvalues ---    0.04510   0.04781   0.04988   0.05454   0.05717
     Eigenvalues ---    0.06136   0.06277   0.07657   0.08939   0.09439
     Eigenvalues ---    0.09493   0.10792   0.11585   0.11658   0.11899
     Eigenvalues ---    0.13522   0.17230   0.17593   0.22744   0.26272
     Eigenvalues ---    0.26608   0.33580   0.34578   0.34608   0.34648
     Eigenvalues ---    0.34686   0.34742   0.34771   0.34792   0.34834
     Eigenvalues ---    0.35240   0.40306   0.41272   0.45360
 RFO step:  Lambda=-1.73608293D-04 EMin= 5.65590030D-03
 Quartic linear search produced a step of -0.01656.
 Iteration  1 RMS(Cart)=  0.00713367 RMS(Int)=  0.00004917
 Iteration  2 RMS(Cart)=  0.00004496 RMS(Int)=  0.00001306
 Iteration  3 RMS(Cart)=  0.00000000 RMS(Int)=  0.00001306
 Variable       Old X    -DE/DX   Delta X   Delta X   Delta X     New X
                                 (Linear)    (Quad)   (Total)
    R1        2.89689  -0.00137   0.00051  -0.00654  -0.00603   2.89086
    R2        2.77126   0.00100   0.00005   0.00260   0.00265   2.77391
    R3        2.07241  -0.00063  -0.00017  -0.00121  -0.00138   2.07103
    R4        2.07046   0.00103  -0.00011   0.00329   0.00317   2.07363
    R5        2.68536   0.00148   0.00019   0.00284   0.00303   2.68839
    R6        2.06949  -0.00022  -0.00015  -0.00012  -0.00027   2.06922
    R7        2.08509   0.00109  -0.00037   0.00434   0.00396   2.08905
    R8        2.68537   0.00147   0.00019   0.00283   0.00302   2.68839
    R9        2.89693  -0.00137   0.00051  -0.00657  -0.00605   2.89087
   R10        2.06948  -0.00022  -0.00015  -0.00012  -0.00027   2.06922
   R11        2.08509   0.00109  -0.00037   0.00434   0.00396   2.08905
   R12        2.77118   0.00101   0.00005   0.00265   0.00270   2.77388
   R13        2.07241  -0.00063  -0.00018  -0.00121  -0.00138   2.07103
   R14        2.07046   0.00103  -0.00011   0.00329   0.00317   2.07363
   R15        1.92572   0.00100  -0.00022   0.00288   0.00266   1.92838
    A1        1.96766   0.00007  -0.00028   0.00047   0.00019   1.96786
    A2        1.93052  -0.00013  -0.00017  -0.00181  -0.00200   1.92852
    A3        1.89246   0.00039   0.00038   0.00442   0.00479   1.89725
    A4        1.91179  -0.00023  -0.00005  -0.00479  -0.00484   1.90695
    A5        1.88145  -0.00015   0.00048  -0.00067  -0.00019   1.88126
    A6        1.87701   0.00006  -0.00035   0.00266   0.00232   1.87932
    A7        1.94131  -0.00072  -0.00024  -0.00315  -0.00340   1.93791
    A8        1.94530  -0.00020  -0.00047   0.00257   0.00209   1.94739
    A9        1.91416   0.00030   0.00040  -0.00266  -0.00229   1.91187
   A10        1.85038   0.00097   0.00073   0.00795   0.00868   1.85907
   A11        1.92411  -0.00031   0.00005  -0.00684  -0.00681   1.91729
   A12        1.88712  -0.00002  -0.00048   0.00247   0.00200   1.88912
   A13        1.94565   0.00094   0.00037   0.00231   0.00269   1.94834
   A14        1.94130  -0.00072  -0.00024  -0.00316  -0.00341   1.93789
   A15        1.85039   0.00097   0.00073   0.00795   0.00868   1.85907
   A16        1.92412  -0.00031   0.00005  -0.00685  -0.00683   1.91729
   A17        1.94529  -0.00020  -0.00047   0.00256   0.00209   1.94738
   A18        1.91415   0.00031   0.00040  -0.00264  -0.00227   1.91188
   A19        1.88713  -0.00002  -0.00048   0.00247   0.00200   1.88913
   A20        1.96769   0.00007  -0.00028   0.00046   0.00018   1.96787
   A21        1.93049  -0.00013  -0.00018  -0.00179  -0.00198   1.92851
   A22        1.89240   0.00040   0.00038   0.00447   0.00484   1.89723
   A23        1.91184  -0.00023  -0.00005  -0.00482  -0.00487   1.90697
   A24        1.88148  -0.00015   0.00049  -0.00069  -0.00022   1.88127
   A25        1.87700   0.00005  -0.00035   0.00266   0.00232   1.87931
   A26        1.91971   0.00025  -0.00002   0.00331   0.00328   1.92299
   A27        1.88906   0.00018   0.00003   0.00618   0.00616   1.89523
   A28        1.88912   0.00017   0.00004   0.00613   0.00612   1.89524
    D1        0.95599  -0.00028   0.00019  -0.00211  -0.00190   0.95408
    D2        3.01695   0.00033   0.00065   0.00748   0.00814   3.02509
    D3       -1.17705   0.00038   0.00001   0.01045   0.01047  -1.16659
    D4        3.10320  -0.00063  -0.00019  -0.00935  -0.00954   3.09367
    D5       -1.11902  -0.00001   0.00027   0.00024   0.00051  -1.11851
    D6        0.97017   0.00003  -0.00037   0.00321   0.00283   0.97300
    D7       -1.12578  -0.00040  -0.00049  -0.00451  -0.00500  -1.13078
    D8        0.93518   0.00022  -0.00003   0.00508   0.00505   0.94023
    D9        3.02437   0.00026  -0.00067   0.00805   0.00737   3.03174
   D10       -0.88740  -0.00038  -0.00096   0.00452   0.00355  -0.88385
   D11        1.17327   0.00007  -0.00091   0.01743   0.01653   1.18980
   D12       -3.04503  -0.00009  -0.00051   0.01007   0.00955  -3.03547
   D13       -0.98436   0.00036  -0.00046   0.02298   0.02253  -0.96183
   D14        1.20074   0.00005  -0.00034   0.00986   0.00950   1.21025
   D15       -3.02177   0.00050  -0.00029   0.02276   0.02248  -2.99929
   D16       -1.00389  -0.00008   0.00012  -0.00528  -0.00518  -1.00907
   D17       -3.12133  -0.00004   0.00038  -0.01160  -0.01124  -3.13257
   D18        1.12337  -0.00040   0.00050  -0.01548  -0.01495   1.10842
   D19        1.00387   0.00008  -0.00012   0.00531   0.00520   1.00907
   D20        3.12130   0.00004  -0.00037   0.01162   0.01126   3.13255
   D21       -1.12339   0.00039  -0.00050   0.01549   0.01496  -1.10842
   D22       -0.95596   0.00028  -0.00019   0.00207   0.00187  -0.95409
   D23       -3.10323   0.00063   0.00019   0.00935   0.00953  -3.09370
   D24        1.12582   0.00040   0.00049   0.00447   0.00495   1.13077
   D25       -3.01692  -0.00033  -0.00065  -0.00751  -0.00817  -3.02509
   D26        1.11899   0.00001  -0.00027  -0.00024  -0.00051   1.11848
   D27       -0.93515  -0.00022   0.00003  -0.00512  -0.00509  -0.94023
   D28        1.17708  -0.00038  -0.00002  -0.01050  -0.01051   1.16657
   D29       -0.97019  -0.00003   0.00037  -0.00322  -0.00285  -0.97304
   D30       -3.02433  -0.00026   0.00067  -0.00810  -0.00742  -3.03175
   D31        0.88738   0.00038   0.00096  -0.00450  -0.00353   0.88385
   D32       -1.17325  -0.00007   0.00091  -0.01744  -0.01654  -1.18978
   D33        3.04502   0.00010   0.00051  -0.01006  -0.00953   3.03549
   D34        0.98439  -0.00036   0.00046  -0.02299  -0.02254   0.96185
   D35       -1.20071  -0.00005   0.00034  -0.00987  -0.00952  -1.21023
   D36        3.02184  -0.00051   0.00029  -0.02280  -0.02252   2.99932
         Item               Value     Threshold  Converged?
 Maximum Force            0.001480     0.000450     NO 
 RMS     Force            0.000561     0.000300     NO 
 Maximum Displacement     0.022329     0.001800     NO 
 RMS     Displacement     0.007131     0.001200     NO 
 Predicted change in Energy=-8.774575D-05
 GradGradGradGradGradGradGradGradGradGradGradGradGradGradGradGradGradGrad

                          Input orientation:                          
 ---------------------------------------------------------------------
 Center     Atomic      Atomic             Coordinates (Angstroms)
 Number     Number       Type             X           Y           Z
 ---------------------------------------------------------------------
      1          6           0       -0.501015   -0.216655   -1.148140
      2          6           0       -0.124466    1.215544   -0.764419
      3          8           0        0.957449    1.229016    0.159252
      4          6           0        0.650465    0.492895    1.337293
      5          6           0        0.291620   -0.955817    1.001579
      6          7           0       -0.793303   -1.058625    0.018203
      7          1           0       -1.365791   -0.218799   -1.821373
      8          1           0        0.341201   -0.669821   -1.686118
      9          1           0        0.202573    1.793025   -1.635366
     10          1           0       -1.001698    1.722762   -0.322523
     11          1           0        1.535455    0.550058    1.979565
     12          1           0       -0.193866    0.969438    1.868417
     13          1           0        0.009768   -1.501541    1.909232
     14          1           0        1.175958   -1.448235    0.577808
     15          1           0       -1.656449   -0.727547    0.450289
 ---------------------------------------------------------------------
                    Distance matrix (angstroms):
                    1          2          3          4          5
     1  C    0.000000
     2  C    1.529779   0.000000
     3  O    2.434411   1.422635   0.000000
     4  C    2.829619   2.353706   1.422636   0.000000
     5  C    2.407472   2.829608   2.434407   1.529785   0.000000
     6  N    1.467890   2.496334   2.884151   2.496334   1.467875
     7  H    1.095940   2.171492   3.378829   3.814311   3.355482
     8  H    1.097319   2.149645   2.718590   3.254008   2.703325
     9  H    2.184316   1.094983   2.026967   3.275308   3.810189
    10  H    2.166487   1.105477   2.077054   2.645223   3.255872
    11  H    3.810196   3.275310   2.026971   1.094983   2.184317
    12  H    3.255883   2.645224   2.077054   1.105478   2.166498
    13  H    3.355496   3.814312   3.378827   2.171493   1.095942
    14  H    2.703317   3.253981   2.718568   2.149639   1.097320
    15  H    2.037404   2.756464   3.278004   2.756467   2.037401
                    6          7          8          9         10
     6  N    0.000000
     7  H    2.101687   0.000000
     8  H    2.083981   1.770744   0.000000
     9  H    3.443539   2.557694   2.467266   0.000000
    10  H    2.809918   2.479673   3.063858   1.782908   0.000000
    11  H    3.443532   4.843087   4.043708   4.048365   3.621048
    12  H    2.809921   4.049674   3.950719   3.621043   2.453631
    13  H    2.101687   4.177918   3.705151   4.843089   4.049682
    14  H    2.083973   3.705140   2.535371   4.043684   3.950697
    15  H    1.020457   2.346008   2.925436   3.762872   2.651406
                   11         12         13         14         15
    11  H    0.000000
    12  H    1.782915   0.000000
    13  H    2.557680   2.479691   0.000000
    14  H    2.467253   3.063860   1.770744   0.000000
    15  H    3.762872   2.651414   2.346031   2.925437   0.000000
 Stoichiometry    C4H9NO
 Framework group  C1[X(C4H9NO)]
 Deg. of freedom    39
 Full point group                 C1      NOp   1
 Largest Abelian subgroup         C1      NOp   1
 Largest concise Abelian subgroup C1      NOp   1
                         Standard orientation:                         
 ---------------------------------------------------------------------
 Center     Atomic      Atomic             Coordinates (Angstroms)
 Number     Number       Type             X           Y           Z
 ---------------------------------------------------------------------
      1          6           0        1.203758    0.722263   -0.221889
      2          6           0        1.176833   -0.748232    0.198993
      3          8           0       -0.000035   -1.393061   -0.273308
      4          6           0       -1.176873   -0.748178    0.198997
      5          6           0       -1.203714    0.722323   -0.221891
      6          7           0        0.000030    1.453306    0.192017
      7          1           0        2.088984    1.222357    0.187213
      8          1           0        1.267714    0.773985   -1.316121
      9          1           0        2.024149   -1.302134   -0.218424
     10          1           0        1.226796   -0.818389    1.301110
     11          1           0       -2.024217   -1.302030   -0.218428
     12          1           0       -1.226835   -0.818337    1.301114
     13          1           0       -2.088934    1.222453    0.187188
     14          1           0       -1.267657    0.774028   -1.316126
     15          1           0        0.000038    1.530363    1.209560
 ---------------------------------------------------------------------
 Rotational constants (GHZ):           4.8735641           4.5828870           2.6702560
 Standard basis: 6-31G(d,p) (6D, 7F)
 There are   135 symmetry adapted cartesian basis functions of A   symmetry.
 There are   135 symmetry adapted basis functions of A   symmetry.
   135 basis functions,   231 primitive gaussians,   135 cartesian basis functions
    24 alpha electrons       24 beta electrons
       nuclear repulsion energy       262.6261758361 Hartrees.
 NAtoms=   15 NActive=   15 NUniq=   15 SFac= 1.00D+00 NAtFMM=   60 NAOKFM=F Big=F
 Integral buffers will be    131072 words long.
 Raffenetti 2 integral format.
 Two-electron integral symmetry is turned on.
 Nuclear repulsion after empirical dispersion term =      262.6059929247 Hartrees.
 One-electron integrals computed using PRISM.
 NBasis=   135 RedAO= T EigKep=  3.60D-03  NBF=   135
 NBsUse=   135 1.00D-06 EigRej= -1.00D+00 NBFU=   135
 Initial guess from the checkpoint file:  "SecN1_conf-2.chk"
 B after Tr=    -0.000000    0.000000   -0.000000
         Rot=    1.000000    0.000342   -0.000000    0.000026 Ang=   0.04 deg.
 ExpMin= 1.61D-01 ExpMax= 5.48D+03 ExpMxC= 8.25D+02 IAcc=3 IRadAn=         5 AccDes= 0.00D+00
 Harris functional with IExCor=  402 and IRadAn=       5 diagonalized for initial guess.
 HarFok:  IExCor=  402 AccDes= 0.00D+00 IRadAn=         5 IDoV= 1 UseB2=F ITyADJ=14
 ICtDFT=  3500011 ScaDFX=  1.000000  1.000000  1.000000  1.000000
 FoFCou: FMM=F IPFlag=           0 FMFlag=      100000 FMFlg1=           0
         NFxFlg=           0 DoJE=T BraDBF=F KetDBF=T FulRan=T
         wScrn=  0.000000 ICntrl=       500 IOpCl=  0 I1Cent=   200000004 NGrid=           0
         NMat0=    1 NMatS0=      1 NMatT0=    0 NMatD0=    1 NMtDS0=    0 NMtDT0=    0
 Petite list used in FoFCou.
 Requested convergence on RMS density matrix=1.00D-08 within 128 cycles.
 Requested convergence on MAX density matrix=1.00D-06.
 Requested convergence on             energy=1.00D-06.
 No special actions if energy rises.
 Integral accuracy reduced to 1.0D-05 until final iterations.
 Initial convergence to 1.0D-05 achieved.  Increase integral accuracy.
 SCF Done:  E(RB3LYP) =  -287.826580932     A.U. after   10 cycles
            NFock= 10  Conv=0.51D-08     -V/T= 2.0093
 Calling FoFJK, ICntrl=      2127 FMM=F ISym2X=0 I1Cent= 0 IOpClX= 0 NMat=1 NMatS=1 NMatT=0.
 ***** Axes restored to original set *****
 -------------------------------------------------------------------
 Center     Atomic                   Forces (Hartrees/Bohr)
 Number     Number              X              Y              Z
 -------------------------------------------------------------------
      1        6           0.000036757    0.000050606   -0.000325427
      2        6          -0.000617699   -0.000029867    0.000292796
      3        8           0.000944413    0.000145712   -0.000297587
      4        6          -0.000662727    0.000008923    0.000170073
      5        6           0.000237154   -0.000127911    0.000207460
      6        7          -0.000067122    0.000540085    0.000203794
      7        1           0.000069749   -0.000073925    0.000069691
      8        1          -0.000212517   -0.000138795   -0.000031230
      9        1           0.000005949   -0.000037248    0.000337659
     10        1           0.000089848    0.000059378   -0.000177053
     11        1          -0.000201792    0.000156864   -0.000224706
     12        1           0.000187044   -0.000031349    0.000085184
     13        1          -0.000002094   -0.000007364   -0.000124714
     14        1          -0.000177085   -0.000172819    0.000067444
     15        1           0.000370122   -0.000342290   -0.000253385
 -------------------------------------------------------------------
 Cartesian Forces:  Max     0.000944413 RMS     0.000270762

 GradGradGradGradGradGradGradGradGradGradGradGradGradGradGradGradGradGrad
 Berny optimization.
 Using GEDIIS/GDIIS optimizer.
 FormGI is forming the generalized inverse of G from B-inverse, IUseBI=4.
 Internal  Forces:  Max     0.000532434 RMS     0.000143082
 Search for a local minimum.
 Step number   3 out of a maximum of   89
 All quantities printed in internal units (Hartrees-Bohrs-Radians)
 Mixed Optimization -- En-DIIS/RFO-DIIS
 Swapping is turned off.
 Update second derivatives using D2CorX and points    1    2    3
 DE= -8.77D-05 DEPred=-8.77D-05 R= 1.00D+00
 TightC=F SS=  1.41D+00  RLast= 7.18D-02 DXNew= 8.4853D-01 2.1538D-01
 Trust test= 1.00D+00 RLast= 7.18D-02 DXMaxT set to 5.05D-01
 ITU=  1  1  0
     Eigenvalues ---    0.00567   0.00776   0.01190   0.03089   0.03112
     Eigenvalues ---    0.04414   0.04787   0.05305   0.05446   0.05751
     Eigenvalues ---    0.06146   0.06477   0.07703   0.09052   0.09327
     Eigenvalues ---    0.09446   0.10778   0.11571   0.11800   0.11896
     Eigenvalues ---    0.13514   0.17247   0.17587   0.23309   0.26613
     Eigenvalues ---    0.27241   0.33961   0.34578   0.34615   0.34648
     Eigenvalues ---    0.34686   0.34750   0.34771   0.34802   0.34940
     Eigenvalues ---    0.35679   0.40300   0.40536   0.46377
 En-DIIS/RFO-DIIS/Sim-DIIS IScMMF=       -3 using points:     3    2
 RFO step:  Lambda=-1.57001768D-05.
 DidBck=F Rises=F RFO-DIIS coefs:    1.30670   -0.30670
 Iteration  1 RMS(Cart)=  0.00321342 RMS(Int)=  0.00000931
 Iteration  2 RMS(Cart)=  0.00000843 RMS(Int)=  0.00000475
 Iteration  3 RMS(Cart)=  0.00000000 RMS(Int)=  0.00000475
 Variable       Old X    -DE/DX   Delta X   Delta X   Delta X     New X
                                 (Linear)    (Quad)   (Total)
    R1        2.89086   0.00012  -0.00185   0.00172  -0.00013   2.89074
    R2        2.77391  -0.00009   0.00081  -0.00054   0.00028   2.77419
    R3        2.07103  -0.00010  -0.00042   0.00002  -0.00040   2.07062
    R4        2.07363  -0.00009   0.00097  -0.00094   0.00003   2.07366
    R5        2.68839   0.00025   0.00093  -0.00031   0.00062   2.68901
    R6        2.06922  -0.00029  -0.00008  -0.00077  -0.00085   2.06837
    R7        2.08905  -0.00011   0.00122  -0.00117   0.00005   2.08909
    R8        2.68839   0.00025   0.00093  -0.00031   0.00062   2.68901
    R9        2.89087   0.00012  -0.00186   0.00172  -0.00014   2.89074
   R10        2.06922  -0.00029  -0.00008  -0.00077  -0.00085   2.06837
   R11        2.08905  -0.00011   0.00122  -0.00117   0.00004   2.08909
   R12        2.77388  -0.00009   0.00083  -0.00053   0.00030   2.77418
   R13        2.07103  -0.00010  -0.00042   0.00002  -0.00040   2.07063
   R14        2.07363  -0.00009   0.00097  -0.00095   0.00003   2.07366
   R15        1.92838  -0.00053   0.00082  -0.00174  -0.00092   1.92746
    A1        1.96786  -0.00020   0.00006  -0.00065  -0.00059   1.96727
    A2        1.92852   0.00012  -0.00061   0.00112   0.00051   1.92903
    A3        1.89725   0.00019   0.00147   0.00072   0.00219   1.89944
    A4        1.90695   0.00001  -0.00148   0.00043  -0.00105   1.90590
    A5        1.88126  -0.00002  -0.00006  -0.00041  -0.00047   1.88079
    A6        1.87932  -0.00010   0.00071  -0.00130  -0.00059   1.87873
    A7        1.93791   0.00015  -0.00104   0.00069  -0.00037   1.93754
    A8        1.94739   0.00004   0.00064  -0.00018   0.00046   1.94785
    A9        1.91187   0.00008  -0.00070   0.00192   0.00121   1.91308
   A10        1.85907  -0.00022   0.00266  -0.00408  -0.00142   1.85765
   A11        1.91729   0.00002  -0.00209   0.00292   0.00082   1.91811
   A12        1.88912  -0.00009   0.00061  -0.00139  -0.00078   1.88834
   A13        1.94834  -0.00040   0.00082  -0.00382  -0.00300   1.94533
   A14        1.93789   0.00015  -0.00105   0.00070  -0.00036   1.93753
   A15        1.85907  -0.00022   0.00266  -0.00409  -0.00142   1.85765
   A16        1.91729   0.00002  -0.00209   0.00292   0.00082   1.91811
   A17        1.94738   0.00004   0.00064  -0.00018   0.00047   1.94785
   A18        1.91188   0.00008  -0.00070   0.00191   0.00121   1.91308
   A19        1.88913  -0.00009   0.00061  -0.00140  -0.00078   1.88835
   A20        1.96787  -0.00020   0.00006  -0.00065  -0.00060   1.96727
   A21        1.92851   0.00012  -0.00061   0.00113   0.00052   1.92903
   A22        1.89723   0.00019   0.00148   0.00071   0.00220   1.89943
   A23        1.90697   0.00001  -0.00149   0.00043  -0.00107   1.90590
   A24        1.88127  -0.00002  -0.00007  -0.00041  -0.00047   1.88079
   A25        1.87931  -0.00010   0.00071  -0.00129  -0.00059   1.87873
   A26        1.92299   0.00028   0.00101   0.00174   0.00273   1.92573
   A27        1.89523  -0.00006   0.00189  -0.00090   0.00097   1.89620
   A28        1.89524  -0.00006   0.00188  -0.00090   0.00096   1.89620
    D1        0.95408   0.00011  -0.00058   0.00103   0.00045   0.95453
    D2        3.02509  -0.00003   0.00250  -0.00377  -0.00128   3.02382
    D3       -1.16659  -0.00006   0.00321  -0.00436  -0.00115  -1.16774
    D4        3.09367   0.00007  -0.00293   0.00196  -0.00097   3.09270
    D5       -1.11851  -0.00008   0.00016  -0.00285  -0.00269  -1.12120
    D6        0.97300  -0.00010   0.00087  -0.00343  -0.00257   0.97043
    D7       -1.13078   0.00013  -0.00153   0.00147  -0.00007  -1.13084
    D8        0.94023  -0.00001   0.00155  -0.00334  -0.00179   0.93844
    D9        3.03174  -0.00004   0.00226  -0.00393  -0.00167   3.03008
   D10       -0.88385   0.00000   0.00109   0.00350   0.00458  -0.87926
   D11        1.18980   0.00005   0.00507   0.00287   0.00795   1.19775
   D12       -3.03547  -0.00002   0.00293   0.00218   0.00511  -3.03037
   D13       -0.96183   0.00003   0.00691   0.00156   0.00847  -0.95335
   D14        1.21025   0.00010   0.00292   0.00372   0.00663   1.21688
   D15       -2.99929   0.00015   0.00690   0.00309   0.00999  -2.98930
   D16       -1.00907  -0.00016  -0.00159  -0.00443  -0.00602  -1.01509
   D17       -3.13257  -0.00017  -0.00345  -0.00202  -0.00547  -3.13803
   D18        1.10842   0.00005  -0.00459   0.00040  -0.00418   1.10424
   D19        1.00907   0.00017   0.00159   0.00442   0.00602   1.01508
   D20        3.13255   0.00017   0.00345   0.00202   0.00547   3.13803
   D21       -1.10842  -0.00004   0.00459  -0.00040   0.00418  -1.10424
   D22       -0.95409  -0.00011   0.00057  -0.00101  -0.00044  -0.95453
   D23       -3.09370  -0.00007   0.00292  -0.00193   0.00099  -3.09271
   D24        1.13077  -0.00013   0.00152  -0.00144   0.00007   1.13084
   D25       -3.02509   0.00003  -0.00251   0.00379   0.00128  -3.02381
   D26        1.11848   0.00008  -0.00016   0.00286   0.00271   1.12119
   D27       -0.94023   0.00001  -0.00156   0.00335   0.00179  -0.93844
   D28        1.16657   0.00006  -0.00322   0.00439   0.00116   1.16774
   D29       -0.97304   0.00010  -0.00087   0.00346   0.00259  -0.97044
   D30       -3.03175   0.00004  -0.00228   0.00395   0.00168  -3.03008
   D31        0.88385  -0.00000  -0.00108  -0.00351  -0.00459   0.87926
   D32       -1.18978  -0.00005  -0.00507  -0.00288  -0.00796  -1.19775
   D33        3.03549   0.00002  -0.00292  -0.00219  -0.00512   3.03037
   D34        0.96185  -0.00003  -0.00691  -0.00157  -0.00849   0.95336
   D35       -1.21023  -0.00010  -0.00292  -0.00373  -0.00664  -1.21687
   D36        2.99932  -0.00015  -0.00691  -0.00310  -0.01001   2.98931
         Item               Value     Threshold  Converged?
 Maximum Force            0.000532     0.000450     NO 
 RMS     Force            0.000143     0.000300     YES
 Maximum Displacement     0.013690     0.001800     NO 
 RMS     Displacement     0.003214     0.001200     NO 
 Predicted change in Energy=-7.849758D-06
 GradGradGradGradGradGradGradGradGradGradGradGradGradGradGradGradGradGrad

                          Input orientation:                          
 ---------------------------------------------------------------------
 Center     Atomic      Atomic             Coordinates (Angstroms)
 Number     Number       Type             X           Y           Z
 ---------------------------------------------------------------------
      1          6           0       -0.501173   -0.215734   -1.149188
      2          6           0       -0.123927    1.215689   -0.763526
      3          8           0        0.960878    1.226979    0.157286
      4          6           0        0.650396    0.493609    1.336520
      5          6           0        0.292303   -0.955676    1.002804
      6          7           0       -0.790365   -1.059499    0.016815
      7          1           0       -1.368283   -0.217296   -1.819066
      8          1           0        0.338364   -0.669551   -1.690824
      9          1           0        0.202072    1.794754   -1.633246
     10          1           0       -0.999783    1.723386   -0.319395
     11          1           0        1.534171    0.552527    1.979540
     12          1           0       -0.194072    0.972041    1.865772
     13          1           0        0.006750   -1.499557    1.910148
     14          1           0        1.176556   -1.451182    0.582430
     15          1           0       -1.655985   -0.734791    0.447630
 ---------------------------------------------------------------------
                    Distance matrix (angstroms):
                    1          2          3          4          5
     1  C    0.000000
     2  C    1.529712   0.000000
     3  O    2.434314   1.422963   0.000000
     4  C    2.829844   2.351844   1.422964   0.000000
     5  C    2.410018   2.829840   2.434312   1.529713   0.000000
     6  N    1.468037   2.495907   2.883499   2.495908   1.468034
     7  H    1.095727   2.171642   3.378888   3.812895   3.356441
     8  H    1.097335   2.151214   2.720268   3.258085   2.709174
     9  H    2.184245   1.094534   2.025873   3.273146   3.810744
    10  H    2.167338   1.105501   2.077940   2.641495   3.255007
    11  H    3.810746   3.273146   2.025873   1.094534   2.184244
    12  H    3.255012   2.641495   2.077939   1.105501   2.167341
    13  H    3.356445   3.812896   3.378888   2.171644   1.095728
    14  H    2.709171   3.258075   2.720259   2.151210   1.097335
    15  H    2.037851   2.760158   3.283415   2.760160   2.037850
                    6          7          8          9         10
     6  N    0.000000
     7  H    2.100893   0.000000
     8  H    2.083775   1.770205   0.000000
     9  H    3.443021   2.559079   2.468742   0.000000
    10  H    2.810933   2.480132   3.065551   1.782064   0.000000
    11  H    3.443019   4.842135   4.049074   4.045966   3.616204
    12  H    2.810936   4.046149   3.953187   3.616202   2.447171
    13  H    2.100893   4.176355   3.710239   4.842136   4.046151
    14  H    2.083774   3.710237   2.545819   4.049067   3.953179
    15  H    1.019968   2.342751   2.924837   3.765769   2.657361
                   11         12         13         14         15
    11  H    0.000000
    12  H    1.782066   0.000000
    13  H    2.559078   2.480141   0.000000
    14  H    2.468735   3.065550   1.770204   0.000000
    15  H    3.765771   2.657366   2.342758   2.924838   0.000000
 Stoichiometry    C4H9NO
 Framework group  C1[X(C4H9NO)]
 Deg. of freedom    39
 Full point group                 C1      NOp   1
 Largest Abelian subgroup         C1      NOp   1
 Largest concise Abelian subgroup C1      NOp   1
                         Standard orientation:                         
 ---------------------------------------------------------------------
 Center     Atomic      Atomic             Coordinates (Angstroms)
 Number     Number       Type             X           Y           Z
 ---------------------------------------------------------------------
      1          6           0        1.205020    0.721860   -0.220984
      2          6           0        1.175911   -0.748426    0.200241
      3          8           0       -0.000020   -1.392543   -0.276334
      4          6           0       -1.175933   -0.748394    0.200242
      5          6           0       -1.204998    0.721894   -0.220984
      6          7           0        0.000020    1.453099    0.189376
      7          1           0        2.088194    1.222283    0.191568
      8          1           0        1.272923    0.775604   -1.314897
      9          1           0        2.022964   -1.303445   -0.215041
     10          1           0        1.223573   -0.819653    1.302416
     11          1           0       -2.023002   -1.303386   -0.215044
     12          1           0       -1.223597   -0.819623    1.302416
     13          1           0       -2.088161    1.222343    0.191560
     14          1           0       -1.272896    0.775632   -1.314897
     15          1           0        0.000023    1.537287    1.205864
 ---------------------------------------------------------------------
 Rotational constants (GHZ):           4.8725545           4.5826956           2.6700581
 Standard basis: 6-31G(d,p) (6D, 7F)
 There are   135 symmetry adapted cartesian basis functions of A   symmetry.
 There are   135 symmetry adapted basis functions of A   symmetry.
   135 basis functions,   231 primitive gaussians,   135 cartesian basis functions
    24 alpha electrons       24 beta electrons
       nuclear repulsion energy       262.6108079531 Hartrees.
 NAtoms=   15 NActive=   15 NUniq=   15 SFac= 1.00D+00 NAtFMM=   60 NAOKFM=F Big=F
 Integral buffers will be    131072 words long.
 Raffenetti 2 integral format.
 Two-electron integral symmetry is turned on.
 Nuclear repulsion after empirical dispersion term =      262.5906298454 Hartrees.
 One-electron integrals computed using PRISM.
 NBasis=   135 RedAO= T EigKep=  3.61D-03  NBF=   135
 NBsUse=   135 1.00D-06 EigRej= -1.00D+00 NBFU=   135
 Initial guess from the checkpoint file:  "SecN1_conf-2.chk"
 B after Tr=     0.000000   -0.000000    0.000000
         Rot=    1.000000    0.000008   -0.000000   -0.000005 Ang=   0.00 deg.
 Requested convergence on RMS density matrix=1.00D-08 within 128 cycles.
 Requested convergence on MAX density matrix=1.00D-06.
 Requested convergence on             energy=1.00D-06.
 No special actions if energy rises.
 SCF Done:  E(RB3LYP) =  -287.826589940     A.U. after    8 cycles
            NFock=  8  Conv=0.44D-08     -V/T= 2.0093
 Calling FoFJK, ICntrl=      2127 FMM=F ISym2X=0 I1Cent= 0 IOpClX= 0 NMat=1 NMatS=1 NMatT=0.
 ***** Axes restored to original set *****
 -------------------------------------------------------------------
 Center     Atomic                   Forces (Hartrees/Bohr)
 Number     Number              X              Y              Z
 -------------------------------------------------------------------
      1        6           0.000006910   -0.000188064    0.000098362
      2        6          -0.000198963    0.000095534    0.000016798
      3        8           0.000148024    0.000007987   -0.000051688
      4        6          -0.000146658    0.000046229    0.000158598
      5        6          -0.000088592   -0.000097478   -0.000164053
      6        7          -0.000044565    0.000250273    0.000100969
      7        1          -0.000021413   -0.000023789   -0.000026343
      8        1          -0.000091349    0.000092360    0.000002002
      9        1           0.000004849    0.000058022   -0.000014199
     10        1           0.000143551   -0.000081277   -0.000088980
     11        1           0.000023798    0.000040460    0.000037525
     12        1           0.000148301   -0.000085860   -0.000075826
     13        1          -0.000006297   -0.000037703    0.000014879
     14        1          -0.000054407    0.000057464    0.000103081
     15        1           0.000176811   -0.000134159   -0.000111126
 -------------------------------------------------------------------
 Cartesian Forces:  Max     0.000250273 RMS     0.000101417

 GradGradGradGradGradGradGradGradGradGradGradGradGradGradGradGradGradGrad
 Berny optimization.
 Using GEDIIS/GDIIS optimizer.
 FormGI is forming the generalized inverse of G from B-inverse, IUseBI=4.
 Internal  Forces:  Max     0.000240662 RMS     0.000056970
 Search for a local minimum.
 Step number   4 out of a maximum of   89
 All quantities printed in internal units (Hartrees-Bohrs-Radians)
 Mixed Optimization -- En-DIIS/RFO-DIIS
 Swapping is turned off.
 Update second derivatives using D2CorX and points    1    2    3    4
 DE= -9.01D-06 DEPred=-7.85D-06 R= 1.15D+00
 TightC=F SS=  1.41D+00  RLast= 3.02D-02 DXNew= 8.4853D-01 9.0724D-02
 Trust test= 1.15D+00 RLast= 3.02D-02 DXMaxT set to 5.05D-01
 ITU=  1  1  1  0
[...]
 Standard basis: def2TZVP (5D, 7F)
 There are   270 symmetry adapted cartesian basis functions of A   symmetry.
 There are   240 symmetry adapted basis functions of A   symmetry.
   240 basis functions,   378 primitive gaussians,   270 cartesian basis functions
    24 alpha electrons       24 beta electrons
       nuclear repulsion energy       262.5986784871 Hartrees.
 NAtoms=   15 NActive=   15 NUniq=   15 SFac= 1.00D+00 NAtFMM=   60 NAOKFM=F Big=F
 Integral buffers will be    131072 words long.
 Raffenetti 2 integral format.
 Two-electron integral symmetry is turned on.
 One-electron integrals computed using PRISM.
   1 Symmetry operations used in ECPInt.
 ECPInt:  NShTT=    5253 NPrTT=   15384 LenC2=    5227 LenP2D=   12957.
 LDataN:  DoStor=T MaxTD1= 6 Len=  172
 NBasis=   240 RedAO= T EigKep=  1.31D-04  NBF=   240
 NBsUse=   240 1.00D-06 EigRej= -1.00D+00 NBFU=   240
 Initial guess from the checkpoint file:  "SecN1_conf-2.chk"
 B after Tr=     0.000000    0.000000    0.000000
         Rot=    1.000000   -0.000000    0.000000   -0.000000 Ang=   0.00 deg.
 Requested convergence on RMS density matrix=1.00D-08 within 128 cycles.
 Requested convergence on MAX density matrix=1.00D-06.
 Requested convergence on             energy=1.00D-06.
 No special actions if energy rises.
 SCF Done:  E(RM062X) =  -287.778042687     A.U. after    1 cycles
            NFock=  1  Conv=0.15D-08     -V/T= 2.0053
 DoSCS=F DFT=T ScalE2(SS,OS)=  1.000000  1.000000
 Range of M.O.s used for correlation:     1   240
 NBasis=   240 NAE=    24 NBE=    24 NFC=     0 NFV=     0
 NROrb=    240 NOA=    24 NOB=    24 NVA=   216 NVB=   216

 **** Warning!!: The largest alpha MO coefficient is  0.20588603D+02

          Differentiating once with respect to magnetic field using GIAOs.
          Electric field/nuclear overlap derivatives assumed to be zero.
 FoFCou: FMM=F IPFlag=           0 FMFlag=      100000 FMFlg1=           0
         NFxFlg=           0 DoJE=F BraDBF=F KetDBF=T FulRan=T
         wScrn=  0.000000 ICntrl=      6100 IOpCl=  0 I1Cent=           7 NGrid=          15
         NMat0=    1 NMatS0=      1 NMatT0=    0 NMatD0=    1 NMtDS0=    0 NMtDT0=    0
 Symmetry not used in FoFCou.
   1 Symmetry operations used in ECPInt.
 ECPInt:  NShTT=    5253 NPrTT=   15384 LenC2=    5254 LenP2D=   15384.
 LDataN:  DoStor=T MaxTD1= 7 Len=  274
 FoFJK:  IHMeth= 1 ICntrl=    6127 DoSepK=F KAlg= 0 I1Cent=           0 FoldK=F
 IRaf=         1 NMat=       1 IRICut=       1 DoRegI=T DoRafI=F ISym2E= 0 IDoP0=0 IntGTp=1.
          There are     3 degrees of freedom in the 1st order CPHF.  IDoFFX=0 NUNeed=     3.
      3 vectors produced by pass  0 Test12= 1.73D-13 3.33D-08 XBig12= 4.43D+00 6.14D-01.
 AX will form     3 AO Fock derivatives at one time.
      3 vectors produced by pass  1 Test12= 1.73D-13 3.33D-08 XBig12= 1.20D-02 3.78D-02.
      3 vectors produced by pass  2 Test12= 1.73D-13 3.33D-08 XBig12= 1.12D-04 5.36D-03.
      3 vectors produced by pass  3 Test12= 1.73D-13 3.33D-08 XBig12= 1.44D-06 2.81D-04.
      3 vectors produced by pass  4 Test12= 1.73D-13 3.33D-08 XBig12= 1.13D-08 2.19D-05.
      3 vectors produced by pass  5 Test12= 1.73D-13 3.33D-08 XBig12= 8.30D-11 2.05D-06.
      3 vectors produced by pass  6 Test12= 1.73D-13 3.33D-08 XBig12= 6.41D-13 1.67D-07.
 InvSVY:  IOpt=1 It=  1 EMax= 4.44D-16
 Solved reduced A of dimension    21 with     3 vectors.
 Calculating GIAO nuclear magnetic shielding tensors.
 SCF GIAO Magnetic shielding tensor (ppm):
      1  C    Isotropic =   135.4860   Anisotropy =    21.0860
   XX=   139.1819   YX=   -13.4986   ZX=   -11.8586
   XY=    -9.6063   YY=   136.2687   ZY=    -4.3194
   XZ=     6.5467   YZ=     3.7040   ZZ=   131.0075
   Eigenvalues:   125.3645   131.5502   149.5433
      2  C    Isotropic =   112.1572   Anisotropy =    43.7638
   XX=   122.6592   YX=    24.4060   ZX=    23.0342
   XY=    18.5195   YY=   103.9288   ZY=     1.4042
   XZ=    -1.3633   YZ=     9.4919   ZZ=   109.8836
   Eigenvalues:    89.7656   105.3729   141.3331
      3  O    Isotropic =   287.5717   Anisotropy =    70.7127
   XX=   238.9645   YX=    -0.0000   ZX=    -0.0001
   XY=    -0.0000   YY=   289.1759   ZY=     2.1595
   XZ=    -0.0001   YZ=     2.8702   ZZ=   334.5746
   Eigenvalues:   238.9645   289.0370   334.7135
      4  C    Isotropic =   112.1572   Anisotropy =    43.7639
   XX=   122.6590   YX=   -24.4061   ZX=   -23.0342
   XY=   -18.5196   YY=   103.9291   ZY=     1.4044
   XZ=     1.3634   YZ=     9.4920   ZZ=   109.8837
   Eigenvalues:    89.7656   105.3729   141.3332
      5  C    Isotropic =   135.4860   Anisotropy =    21.0860
   XX=   139.1820   YX=    13.4986   ZX=    11.8586
   XY=     9.6063   YY=   136.2686   ZY=    -4.3194
   XZ=    -6.5468   YZ=     3.7040   ZZ=   131.0076
   Eigenvalues:   125.3645   131.5503   149.5434
      6  N    Isotropic =   214.3480   Anisotropy =    72.7481
   XX=   189.7184   YX=     0.0001   ZX=     0.0001
   XY=     0.0001   YY=   192.0686   ZY=    11.5931
   XZ=     0.0000   YZ=     9.6220   ZZ=   261.2569
   Eigenvalues:   189.7184   190.4788   262.8467
      7  H    Isotropic =    29.3539   Anisotropy =     8.1892
   XX=    33.7187   YX=     3.0419   ZX=     0.2923
   XY=     1.8560   YY=    28.7721   ZY=     0.7556
   XZ=     0.8838   YZ=     1.0964   ZZ=    25.5710
   Eigenvalues:    25.3218    27.9267    34.8134
      8  H    Isotropic =    29.0847   Anisotropy =     7.6066
   XX=    28.4869   YX=    -0.7569   ZX=    -5.1352
   XY=    -0.7211   YY=    27.6843   ZY=    -1.7453
   XZ=    -3.0488   YZ=    -1.0648   ZZ=    31.0827
   Eigenvalues:    24.7790    28.3192    34.1557
      9  H    Isotropic =    28.2317   Anisotropy =     6.7331
   XX=    31.6453   YX=    -2.8459   ZX=    -0.1342
   XY=    -1.5087   YY=    28.1075   ZY=     0.5130
   XZ=    -0.2742   YZ=     1.1699   ZZ=    24.9423
   Eigenvalues:    24.7134    27.2613    32.7204
     10  H    Isotropic =    28.7490   Anisotropy =     7.2770
   XX=    28.8805   YX=     0.5680   ZX=     5.8825
   XY=     0.5961   YY=    27.8003   ZY=    -1.5255
   XZ=     2.6558   YZ=    -1.5159   ZZ=    29.5661
   Eigenvalues:    24.3187    28.3279    33.6003
     11  H    Isotropic =    28.2317   Anisotropy =     6.7331
   XX=    31.6453   YX=     2.8459   ZX=     0.1342
   XY=     1.5087   YY=    28.1075   ZY=     0.5130
   XZ=     0.2742   YZ=     1.1699   ZZ=    24.9423
   Eigenvalues:    24.7134    27.2613    32.7204
     12  H    Isotropic =    28.7490   Anisotropy =     7.2770
   XX=    28.8805   YX=    -0.5680   ZX=    -5.8825
   XY=    -0.5961   YY=    27.8003   ZY=    -1.5255
   XZ=    -2.6559   YZ=    -1.5159   ZZ=    29.5662
   Eigenvalues:    24.3187    28.3279    33.6003
     13  H    Isotropic =    29.3539   Anisotropy =     8.1892
   XX=    33.7187   YX=    -3.0419   ZX=    -0.2923
   XY=    -1.8560   YY=    28.7722   ZY=     0.7556
   XZ=    -0.8838   YZ=     1.0964   ZZ=    25.5710
   Eigenvalues:    25.3218    27.9267    34.8134
     14  H    Isotropic =    29.0847   Anisotropy =     7.6066
   XX=    28.4869   YX=     0.7569   ZX=     5.1352
   XY=     0.7211   YY=    27.6843   ZY=    -1.7453
   XZ=     3.0488   YZ=    -1.0649   ZZ=    31.0827
   Eigenvalues:    24.7790    28.3192    34.1557
     15  H    Isotropic =    31.9182   Anisotropy =    12.1105
   XX=    30.4535   YX=    -0.0000   ZX=     0.0000
   XY=    -0.0000   YY=    27.3890   ZY=     6.0993
   XZ=     0.0000   YZ=     4.1399   ZZ=    37.9121
   Eigenvalues:    25.3093    30.4535    39.9919
 End of Minotr F.D. properties file   721 does not exist.
 End of Minotr F.D. properties file   722 does not exist.
 End of Minotr F.D. properties file   788 does not exist.

 **********************************************************************

            Population analysis using the SCF Density.

 **********************************************************************

 Orbital symmetries:
       Occupied  (A) (A) (A) (A) (A) (A) (A) (A) (A) (A) (A) (A)
                 (A) (A) (A) (A) (A) (A) (A) (A) (A) (A) (A) (A)
       Virtual   (A) (A) (A) (A) (A) (A) (A) (A) (A) (A) (A) (A)
                 (A) (A) (A) (A) (A) (A) (A) (A) (A) (A) (A) (A)
                 (A) (A) (A) (A) (A) (A) (A) (A) (A) (A) (A) (A)
                 (A) (A) (A) (A) (A) (A) (A) (A) (A) (A) (A) (A)
                 (A) (A) (A) (A) (A) (A) (A) (A) (A) (A) (A) (A)
                 (A) (A) (A) (A) (A) (A) (A) (A) (A) (A) (A) (A)
                 (A) (A) (A) (A) (A) (A) (A) (A) (A) (A) (A) (A)
                 (A) (A) (A) (A) (A) (A) (A) (A) (A) (A) (A) (A)
                 (A) (A) (A) (A) (A) (A) (A) (A) (A) (A) (A) (A)
                 (A) (A) (A) (A) (A) (A) (A) (A) (A) (A) (A) (A)
                 (A) (A) (A) (A) (A) (A) (A) (A) (A) (A) (A) (A)
                 (A) (A) (A) (A) (A) (A) (A) (A) (A) (A) (A) (A)
                 (A) (A) (A) (A) (A) (A) (A) (A) (A) (A) (A) (A)
                 (A) (A) (A) (A) (A) (A) (A) (A) (A) (A) (A) (A)
                 (A) (A) (A) (A) (A) (A) (A) (A) (A) (A) (A) (A)
                 (A) (A) (A) (A) (A) (A) (A) (A) (A) (A) (A) (A)
                 (A) (A) (A) (A) (A) (A) (A) (A) (A) (A) (A) (A)
                 (A) (A) (A) (A) (A) (A) (A) (A) (A) (A) (A) (A)
 The electronic state is 1-A.
 Alpha  occ. eigenvalues --  -19.62665 -14.73566 -10.58097 -10.58095 -10.55947
 Alpha  occ. eigenvalues --  -10.55945  -1.15810  -1.01112  -0.86681  -0.76945
 Alpha  occ. eigenvalues --   -0.73713  -0.66887  -0.57810  -0.54601  -0.53932
 Alpha  occ. eigenvalues --   -0.53351  -0.51326  -0.45646  -0.44247  -0.42110
 Alpha  occ. eigenvalues --   -0.41058  -0.39192  -0.35174  -0.28099
 Alpha virt. eigenvalues --    0.06473   0.09389   0.09737   0.10910   0.11925
 Alpha virt. eigenvalues --    0.13990   0.14348   0.14465   0.15063   0.16657
 Alpha virt. eigenvalues --    0.18389   0.20866   0.22220   0.23431   0.25339
 Alpha virt. eigenvalues --    0.25941   0.26059   0.32161   0.32770   0.34517
 Alpha virt. eigenvalues --    0.36112   0.36213   0.39015   0.39289   0.39949
 Alpha virt. eigenvalues --    0.40336   0.43540   0.44101   0.44663   0.46617
 Alpha virt. eigenvalues --    0.46788   0.47614   0.48095   0.48782   0.52348
 Alpha virt. eigenvalues --    0.54345   0.56222   0.57455   0.58640   0.60286
 Alpha virt. eigenvalues --    0.60357   0.67201   0.70020   0.70133   0.73787
 Alpha virt. eigenvalues --    0.76519   0.77895   0.79386   0.80129   0.81490
 Alpha virt. eigenvalues --    0.88738   0.90871   0.93420   0.94923   0.95364
 Alpha virt. eigenvalues --    0.96315   1.01162   1.05923   1.10104   1.12072
 Alpha virt. eigenvalues --    1.12488   1.17769   1.18769   1.19656   1.21620
 Alpha virt. eigenvalues --    1.25226   1.27316   1.28562   1.37818   1.40801
 Alpha virt. eigenvalues --    1.46327   1.49536   1.51315   1.53848   1.54038
 Alpha virt. eigenvalues --    1.58146   1.60992   1.62723   1.63901   1.64418
 Alpha virt. eigenvalues --    1.65322   1.69684   1.72928   1.75000   1.76764
 Alpha virt. eigenvalues --    1.77099   1.81814   1.84576   1.87931   1.89829
 Alpha virt. eigenvalues --    1.90030   1.90745   1.95694   1.98172   1.98996
 Alpha virt. eigenvalues --    2.01326   2.01368   2.04953   2.10747   2.11106
 Alpha virt. eigenvalues --    2.18345   2.20226   2.25391   2.27259   2.29230
 Alpha virt. eigenvalues --    2.34332   2.37368   2.38327   2.41778   2.42805
 Alpha virt. eigenvalues --    2.44041   2.47455   2.49281   2.50748   2.53515
 Alpha virt. eigenvalues --    2.53971   2.56278   2.57846   2.60028   2.62961
 Alpha virt. eigenvalues --    2.63630   2.64956   2.69054   2.72040   2.72686
 Alpha virt. eigenvalues --    2.75666   2.76117   2.81087   2.81888   2.81915
 Alpha virt. eigenvalues --    2.82024   2.91191   2.96168   2.99435   3.05513
 Alpha virt. eigenvalues --    3.06425   3.06737   3.07750   3.10445   3.12676
 Alpha virt. eigenvalues --    3.14381   3.18447   3.19807   3.20196   3.21553
 Alpha virt. eigenvalues --    3.21930   3.25883   3.29891   3.31732   3.34726
 Alpha virt. eigenvalues --    3.34868   3.40400   3.40697   3.44085   3.46827
 Alpha virt. eigenvalues --    3.49106   3.52402   3.53227   3.54848   3.57640
 Alpha virt. eigenvalues --    3.62082   3.67440   3.76155   3.76305   3.78366
 Alpha virt. eigenvalues --    3.80470   3.84756   3.90073   3.90244   3.98643
 Alpha virt. eigenvalues --    3.99684   4.03060   4.10397   4.15105   4.18778
 Alpha virt. eigenvalues --    4.20601   4.27763   4.30388   4.31323   4.41918
 Alpha virt. eigenvalues --    4.46005   4.48562   4.56320   4.61779   4.68150
 Alpha virt. eigenvalues --    4.77675   4.80385   4.81869   4.89275   4.96726
 Alpha virt. eigenvalues --    5.08151   5.10808   5.20474   5.21082   5.29181
 Alpha virt. eigenvalues --    5.39047   5.44287   5.50634   5.50971   5.75380
 Alpha virt. eigenvalues --    5.76857   5.84930   5.84962   6.13265   6.14865
 Alpha virt. eigenvalues --    6.70535   6.74220   6.88038   7.17659   7.22292
 Alpha virt. eigenvalues --   22.44667  22.55032  22.59547  22.64481  32.36841
 Alpha virt. eigenvalues --   44.21620
          Condensed to atoms (all electrons):
               1          2          3          4          5          6
     1  C    5.078551   0.303371  -0.047685  -0.011825  -0.011185   0.263388
     2  C    0.303371   5.038916   0.234750  -0.054863  -0.011825  -0.072470
     3  O   -0.047685   0.234750   8.072193   0.234750  -0.047685   0.005909
     4  C   -0.011825  -0.054863   0.234750   5.038915   0.303371  -0.072469
     5  C   -0.011185  -0.011825  -0.047685   0.303371   5.078551   0.263388
     6  N    0.263388  -0.072470   0.005909  -0.072469   0.263388   6.718081
     7  H    0.410714  -0.058480   0.005830  -0.000295   0.005456  -0.034725
     8  H    0.410738  -0.066091   0.004672  -0.004469  -0.008061  -0.040335
     9  H   -0.042954   0.388854  -0.034823   0.006863  -0.002501   0.010771
    10  H   -0.089759   0.430019  -0.048211  -0.012558  -0.003761   0.002282
    11  H   -0.002501   0.006863  -0.034823   0.388854  -0.042955   0.010771
    12  H   -0.003761  -0.012558  -0.048211   0.430020  -0.089759   0.002282
    13  H    0.005456  -0.000295   0.005830  -0.058480   0.410714  -0.034725
    14  H   -0.008061  -0.004469   0.004672  -0.066091   0.410738  -0.040335
    15  H   -0.051713  -0.006300  -0.000902  -0.006300  -0.051713   0.364323
               7          8          9         10         11         12
     1  C    0.410714   0.410738  -0.042954  -0.089759  -0.002501  -0.003761
     2  C   -0.058480  -0.066091   0.388854   0.430019   0.006863  -0.012558
     3  O    0.005830   0.004672  -0.034823  -0.048211  -0.034823  -0.048211
     4  C   -0.000295  -0.004469   0.006863  -0.012558   0.388854   0.430020
     5  C    0.005456  -0.008061  -0.002501  -0.003761  -0.042955  -0.089759
     6  N   -0.034725  -0.040335   0.010771   0.002282   0.010771   0.002282
     7  H    0.541479  -0.012585   0.000547   0.004522   0.000182   0.000604
     8  H   -0.012585   0.546229   0.000143   0.010025   0.000414   0.000939
     9  H    0.000547   0.000143   0.557540  -0.019022   0.000473   0.000389
    10  H    0.004522   0.010025  -0.019022   0.583624   0.000389   0.013291
    11  H    0.000182   0.000414   0.000473   0.000389   0.557540  -0.019022
    12  H    0.000604   0.000939   0.000389   0.013291  -0.019022   0.583623
    13  H    0.000080   0.000701   0.000182   0.000604   0.000547   0.004522
    14  H    0.000701   0.005432   0.000414   0.000939   0.000143   0.010025
    15  H   -0.006596   0.009295   0.000485   0.004985   0.000485   0.004985
              13         14         15
     1  C    0.005456  -0.008061  -0.051713
     2  C   -0.000295  -0.004469  -0.006300
     3  O    0.005830   0.004672  -0.000902
     4  C   -0.058480  -0.066091  -0.006300
     5  C    0.410714   0.410738  -0.051713
     6  N   -0.034725  -0.040335   0.364323
     7  H    0.000080   0.000701  -0.006596
     8  H    0.000701   0.005432   0.009295
     9  H    0.000182   0.000414   0.000485
    10  H    0.000604   0.000939   0.004985
    11  H    0.000547   0.000143   0.000485
    12  H    0.004522   0.010025   0.004985
    13  H    0.541479  -0.012585  -0.006596
    14  H   -0.012585   0.546229   0.009295
    15  H   -0.006596   0.009295   0.529041
 Mulliken charges:
               1
     1  C   -0.202774
     2  C   -0.115424
     3  O   -0.306268
     4  C   -0.115424
     5  C   -0.202774
     6  N   -0.346134
     7  H    0.142564
     8  H    0.142951
     9  H    0.132639
    10  H    0.122632
    11  H    0.132639
    12  H    0.122632
    13  H    0.142564
    14  H    0.142951
    15  H    0.207226
 Sum of Mulliken charges =  -0.00000
 Mulliken charges with hydrogens summed into heavy atoms:
               1
     1  C    0.082741
     2  C    0.139847
     3  O   -0.306268
     4  C    0.139847
     5  C    0.082741
     6  N   -0.138908
 Electronic spatial extent (au):  <R**2>=            521.1328
 Charge=             -0.0000 electrons
 Dipole moment (field-independent basis, Debye):
    X=             -0.0000    Y=              0.2387    Z=              1.2404  Tot=              1.2632
 Quadrupole moment (field-independent basis, Debye-Ang):
   XX=            -33.2397   YY=            -44.7310   ZZ=            -36.2863
   XY=             -0.0000   XZ=              0.0000   YZ=              0.4130
 Traceless Quadrupole moment (field-independent basis, Debye-Ang):
   XX=              4.8459   YY=             -6.6453   ZZ=              1.7994
   XY=             -0.0000   XZ=              0.0000   YZ=              0.4130
 Octapole moment (field-independent basis, Debye-Ang**2):
  XXX=             -0.0000  YYY=             -8.1563  ZZZ=              0.9994  XYY=             -0.0000
  XXY=             -2.2617  XXZ=             -0.7858  XZZ=              0.0000  YZZ=              2.1792
  YYZ=              3.8653  XYZ=              0.0000
 Hexadecapole moment (field-independent basis, Debye-Ang**3):
 XXXX=           -303.6519 YYYY=           -330.3163 ZZZZ=            -81.1186 XXXY=              0.0000
 XXXZ=              0.0000 YYYX=             -0.0002 YYYZ=              7.0460 ZZZX=              0.0000
 ZZZY=              3.7099 XXYY=            -92.2421 XXZZ=            -66.5052 YYZZ=            -60.0726
 XXYZ=              4.4114 YYXZ=             -0.0000 ZZXY=              0.0000
 N-N= 2.625986784871D+02 E-N=-1.196270350010D+03  KE= 2.862628332887D+02
 Unable to Open any file for archive entry.
 1\1\GINC-NOTCH144\SP\RM062X\def2TZVP\C4H9N1O1\U6032257\25-Sep-2022\0\\
 # M062X/def2tzvp int=(grid=ultrafine) nmr=giao guess=read geom=check\\
 SecN1.xyz\\0,1\C,0,-0.5014951687,-0.2154140206,-1.1494544856\C,0,-0.12
 36407907,1.2158437087,-0.7635966018\O,0,0.961995631,1.226173997,0.1565
 958854\C,0,0.6506930183,0.4937523166,1.3364761697\C,0,0.292275004,-0.9
 556289868,1.0033281527\N,0,-0.7892713769,-1.059836689,0.0162946726\H,0
 ,-1.3695305474,-0.2169010422,-1.81817232\H,0,0.3371174289,-0.66854274,
 -1.6927778144\H,0,0.2018070672,1.7955783933,-1.6331169583\H,0,-0.99877
 46191,1.7234470461,-0.3186456919\H,0,1.5340532617,0.5532159163,1.98006
 98183\H,0,-0.1937114955,0.9727006166,1.8647666576\H,0,0.0053241508,-1.
 4989973809,1.9105662105\H,0,1.1769315194,-1.4516932863,0.5848783374\H,
 0,-1.6558730829,-0.7379978487,0.4464879678\\Version=ES64L-G16RevC.01\S
 tate=1-A\HF=-287.7780427\RMSD=1.524e-09\Dipole=-0.441355,0.1096124,0.2
 004255\Quadrupole=0.3605407,-3.3815112,3.0209705,-2.7001996,0.2670554,
 -1.4058978\PG=C01 [X(C4H9N1O1)]\\@
 The archive entry for this job was punched.


 The number of Unix installations has grown to 10,
  with more expected.
                  -- The Unix Programmer's Manual,
                     2nd Edition, June, 1972.
 Job cpu time:       0 days  0 hours  6 minutes 55.3 seconds.
 Elapsed time:       0 days  0 hours  0 minutes 12.2 seconds.
 File lengths (MBytes):  RWF=     38 Int=      0 D2E=      0 Chk=      6 Scr=      1
 Normal termination of Gaussian 16 at Sun Sep 25 07:18:40 2022.
