 Entering Gaussian System, Link 0=/uufs/chpc.utah.edu/sys/installdir/gaussian16/C01/AVX2/g16/g16
 Input=SecN5_clust-9.com
 Output=SecN5_clust-9.log
 Initial command:
 /uufs/chpc.utah.edu/sys/installdir/gaussian16/C01/AVX2/g16/l1.exe "/scratch/local/u6032257/5771833/notchpeak.peaks/Gau-2916934.inp" -scrdir="/scratch/local/u6032257/5771833/notchpeak.peaks/"
 Entering Link 1 = /uufs/chpc.utah.edu/sys/installdir/gaussian16/C01/AVX2/g16/l1.exe PID=   2916936.
  
 Copyright (c) 1988-2019, Gaussian, Inc.  All Rights Reserved.
  
 This is part of the Gaussian(R) 16 program.  It is based on
 the Gaussian(R) 09 system (copyright 2009, Gaussian, Inc.),
 the Gaussian(R) 03 system (copyright 2003, Gaussian, Inc.),
 the Gaussian(R) 98 system (copyright 1998, Gaussian, Inc.),
 the Gaussian(R) 94 system (copyright 1995, Gaussian, Inc.),
 the Gaussian 92(TM) system (copyright 1992, Gaussian, Inc.),
 the Gaussian 90(TM) system (copyright 1990, Gaussian, Inc.),
 the Gaussian 88(TM) system (copyright 1988, Gaussian, Inc.),
 the Gaussian 86(TM) system (copyright 1986, Carnegie Mellon
 University), and the Gaussian 82(TM) system (copyright 1983,
 Carnegie Mellon University). Gaussian is a federally registered
 trademark of Gaussian, Inc.
  
 This software contains proprietary and confidential information,
 including trade secrets, belonging to Gaussian, Inc.
  
 This software is provided under written license and may be
 used, copied, transmitted, or stored only in accord with that
 written license.
  
 The following legend is applicable only to US Government
 contracts under FAR:
  
                    RESTRICTED RIGHTS LEGEND
  
 Use, reproduction and disclosure by the US Government is
 subject to restrictions as set forth in subparagraphs (a)
 and (c) of the Commercial Computer Software - Restricted
 Rights clause in FAR 52.227-19.
  
 Gaussian, Inc.
 340 Quinnipiac St., Bldg. 40, Wallingford CT 06492
  
  
 ---------------------------------------------------------------
 Warning -- This program may not be used in any manner that
 competes with the business of Gaussian, Inc. or will provide
 assistance to any competitor of Gaussian, Inc.  The licensee
 of this program is prohibited from giving any competitor of
 Gaussian, Inc. access to this program.  By using this program,
 the user acknowledges that Gaussian, Inc. is engaged in the
 business of creating and licensing software in the field of
 computational chemistry and represents and warrants to the
 licensee that it is not a competitor of Gaussian, Inc. and that
 it will not use this program in any manner prohibited above.
 ---------------------------------------------------------------
  

 Cite this work as:
 Gaussian 16, Revision C.01,
 M. J. Frisch, G. W. Trucks, H. B. Schlegel, G. E. Scuseria, 
 M. A. Robb, J. R. Cheeseman, G. Scalmani, V. Barone, 
 G. A. Petersson, H. Nakatsuji, X. Li, M. Caricato, A. V. Marenich, 
 J. Bloino, B. G. Janesko, R. Gomperts, B. Mennucci, H. P. Hratchian, 
 J. V. Ortiz, A. F. Izmaylov, J. L. Sonnenberg, D. Williams-Young, 
 F. Ding, F. Lipparini, F. Egidi, J. Goings, B. Peng, A. Petrone, 
 T. Henderson, D. Ranasinghe, V. G. Zakrzewski, J. Gao, N. Rega, 
 G. Zheng, W. Liang, M. Hada, M. Ehara, K. Toyota, R. Fukuda, 
 J. Hasegawa, M. Ishida, T. Nakajima, Y. Honda, O. Kitao, H. Nakai, 
 T. Vreven, K. Throssell, J. A. Montgomery, Jr., J. E. Peralta, 
 F. Ogliaro, M. J. Bearpark, J. J. Heyd, E. N. Brothers, K. N. Kudin, 
 V. N. Staroverov, T. A. Keith, R. Kobayashi, J. Normand, 
 K. Raghavachari, A. P. Rendell, J. C. Burant, S. S. Iyengar, 
 J. Tomasi, M. Cossi, J. M. Millam, M. Klene, C. Adamo, R. Cammi, 
 J. W. Ochterski, R. L. Martin, K. Morokuma, O. Farkas, 
 J. B. Foresman, and D. J. Fox, Gaussian, Inc., Wallingford CT, 2019.
 
 ******************************************
 Gaussian 16:  ES64L-G16RevC.01  3-Jul-2019
                23-Sep-2022 
 ******************************************
 %NProcShared=56
 Will use up to   56 processors via shared memory.
 %mem=16GB
 %chk=SecN5_clust-9.chk
 ----------------------------------------------------------------------
 # B3LYP/6-31G(d,p) empiricaldispersion=GD3BJ int=(grid=ultrafine) opt 
 freq=noraman
 ----------------------------------------------------------------------
 1/18=20,19=15,26=4,38=1/1,3;
 2/9=110,12=2,17=6,18=5,40=1/2;
 3/5=1,6=6,7=101,11=2,25=1,30=1,71=1,74=-5,75=-5,124=41/1,2,3;
 4//1;
 5/5=2,38=5/2;
 6/7=2,8=2,9=2,10=2,28=1/1;
 7//1,2,3,16;
 1/18=20,19=15,26=4/3(2);
 2/9=110/2;
 99//99;
 2/9=110/2;
 3/5=1,6=6,7=101,11=2,25=1,30=1,71=1,74=-5,75=-5,124=41/1,2,3;
 4/5=5,16=3,69=1/1;
 5/5=2,38=5/2;
 7//1,2,3,16;
 1/18=20,19=15,26=4/3(-5);
 2/9=110/2;
 6/7=2,8=2,9=2,10=2,19=2,28=1/1;
 99/9=1/99;
 ---------
 SecN5.xyz
 ---------
 Symbolic Z-matrix:
 Charge =  0 Multiplicity = 1
 C                    -1.1493   -3.6749    4.8047 
 N                    -1.1767   -2.9092    3.565 
 C                    -0.1346   -3.3505    2.6499 
 C                    -0.1773   -2.4731    1.3928 
 C                     0.8578   -2.9075    0.3316 
 N                     1.0109   -1.9147   -0.7577 
 C                     2.3037   -1.3822   -0.9874 
 C                     2.5757   -0.0386   -1.3727 
 C                     1.5047    1.0314   -1.5831 
 C                     0.1664    0.8694   -0.8616 
 C                    -0.6711   -0.248    -1.4492 
 C                    -0.1861   -1.5698   -1.4149 
 C                    -0.9658   -2.5801   -1.9973 
 C                    -2.1869   -2.3005   -2.6068 
 C                    -2.6557   -0.992    -2.6388 
 C                    -1.8996    0.0265   -2.065 
 C                     3.9008    0.3546   -1.6149 
 C                     4.9617   -0.5329   -1.4868 
 C                     4.7113   -1.8481   -1.1287 
 C                     3.4027   -2.2582   -0.8946 
 H                    -0.1923   -3.5746    5.3207 
 H                    -1.9278   -3.3201    5.4819 
 H                    -1.3359   -4.7343    4.6181 
 H                    -1.1072   -1.9126    3.7324 
 H                     0.8512   -3.2772    3.1151 
 H                    -0.2884   -4.3963    2.3734 
 H                    -1.1746   -2.5861    0.9636 
 H                    -0.0588   -1.4153    1.6306 
 H                     1.7906   -3.1063    0.8602 
 H                     0.5726   -3.8736   -0.0876 
 H                     1.9243    1.9949   -1.2892 
 H                     1.3226    1.111    -2.6562 
 H                     0.3086    0.6994    0.2068 
 H                    -0.3865    1.8072   -0.9302 
 H                    -0.6121   -3.5988   -1.9768 
 H                    -2.766    -3.0979   -3.0487 
 H                    -3.602    -0.766    -3.1093 
 H                    -2.272     1.04     -2.1033 
 H                     4.115     1.3709   -1.9136 
 H                     5.973    -0.2038   -1.6792 
 H                     5.5239   -2.5549   -1.046 
 H                     3.2433   -3.2992   -0.6635 
 

 GradGradGradGradGradGradGradGradGradGradGradGradGradGradGradGradGradGrad
 Berny optimization.
 Initialization pass.
                           ----------------------------
                           !    Initial Parameters    !
                           ! (Angstroms and Degrees)  !
 --------------------------                            --------------------------
 ! Name  Definition              Value          Derivative Info.                !
 --------------------------------------------------------------------------------
 ! R1    R(1,2)                  1.4574         estimate D2E/DX2                !
 ! R2    R(1,21)                 1.0919         estimate D2E/DX2                !
 ! R3    R(1,22)                 1.0911         estimate D2E/DX2                !
 ! R4    R(1,23)                 1.0918         estimate D2E/DX2                !
 ! R5    R(2,3)                  1.4554         estimate D2E/DX2                !
 ! R6    R(2,24)                 1.0129         estimate D2E/DX2                !
 ! R7    R(3,4)                  1.5336         estimate D2E/DX2                !
 ! R8    R(3,25)                 1.0925         estimate D2E/DX2                !
 ! R9    R(3,26)                 1.0926         estimate D2E/DX2                !
 ! R10   R(4,5)                  1.5448         estimate D2E/DX2                !
 ! R11   R(4,27)                 1.0916         estimate D2E/DX2                !
 ! R12   R(4,28)                 1.0907         estimate D2E/DX2                !
 ! R13   R(5,6)                  1.4818         estimate D2E/DX2                !
 ! R14   R(5,29)                 1.0904         estimate D2E/DX2                !
 ! R15   R(5,30)                 1.0911         estimate D2E/DX2                !
 ! R16   R(6,7)                  1.4169         estimate D2E/DX2                !
 ! R17   R(6,12)                 1.4084         estimate D2E/DX2                !
 ! R18   R(7,8)                  1.424          estimate D2E/DX2                !
 ! R19   R(7,20)                 1.4085         estimate D2E/DX2                !
 ! R20   R(8,9)                  1.5285         estimate D2E/DX2                !
 ! R21   R(8,17)                 1.4033         estimate D2E/DX2                !
 ! R22   R(9,10)                 1.529          estimate D2E/DX2                !
 ! R23   R(9,31)                 1.0912         estimate D2E/DX2                !
 ! R24   R(9,32)                 1.0913         estimate D2E/DX2                !
 ! R25   R(10,11)                1.515          estimate D2E/DX2                !
 ! R26   R(10,33)                1.0911         estimate D2E/DX2                !
 ! R27   R(10,34)                1.0908         estimate D2E/DX2                !
 ! R28   R(11,12)                1.4084         estimate D2E/DX2                !
 ! R29   R(11,16)                1.4013         estimate D2E/DX2                !
 ! R30   R(12,13)                1.4028         estimate D2E/DX2                !
 ! R31   R(13,14)                1.3931         estimate D2E/DX2                !
 ! R32   R(13,35)                1.0786         estimate D2E/DX2                !
 ! R33   R(14,15)                1.3903         estimate D2E/DX2                !
 ! R34   R(14,36)                1.08           estimate D2E/DX2                !
 ! R35   R(15,16)                1.3922         estimate D2E/DX2                !
 ! R36   R(15,37)                1.0807         estimate D2E/DX2                !
 ! R37   R(16,38)                1.0804         estimate D2E/DX2                !
 ! R38   R(17,18)                1.3891         estimate D2E/DX2                !
 ! R39   R(17,39)                1.0807         estimate D2E/DX2                !
 ! R40   R(18,19)                1.3859         estimate D2E/DX2                !
 ! R41   R(18,40)                1.0808         estimate D2E/DX2                !
 ! R42   R(19,20)                1.3912         estimate D2E/DX2                !
 ! R43   R(19,41)                1.0802         estimate D2E/DX2                !
 ! R44   R(20,42)                1.0782         estimate D2E/DX2                !
 ! A1    A(2,1,21)             111.7291         estimate D2E/DX2                !
 ! A2    A(2,1,22)             110.1019         estimate D2E/DX2                !
 ! A3    A(2,1,23)             111.1752         estimate D2E/DX2                !
 ! A4    A(21,1,22)            107.5885         estimate D2E/DX2                !
 ! A5    A(21,1,23)            108.6456         estimate D2E/DX2                !
 ! A6    A(22,1,23)            107.4372         estimate D2E/DX2                !
 ! A7    A(1,2,3)              111.2285         estimate D2E/DX2                !
 ! A8    A(1,2,24)             112.0276         estimate D2E/DX2                !
 ! A9    A(3,2,24)             110.6776         estimate D2E/DX2                !
 ! A10   A(2,3,4)              108.7834         estimate D2E/DX2                !
 ! A11   A(2,3,25)             110.9783         estimate D2E/DX2                !
 ! A12   A(2,3,26)             110.399          estimate D2E/DX2                !
 ! A13   A(4,3,25)             109.6195         estimate D2E/DX2                !
 ! A14   A(4,3,26)             109.6484         estimate D2E/DX2                !
 ! A15   A(25,3,26)            107.3969         estimate D2E/DX2                !
 ! A16   A(3,4,5)              112.5549         estimate D2E/DX2                !
 ! A17   A(3,4,27)             106.7686         estimate D2E/DX2                !
 ! A18   A(3,4,28)             111.9089         estimate D2E/DX2                !
 ! A19   A(5,4,27)             108.2384         estimate D2E/DX2                !
 ! A20   A(5,4,28)             110.47           estimate D2E/DX2                !
 ! A21   A(27,4,28)            106.5822         estimate D2E/DX2                !
 ! A22   A(4,5,6)              112.6954         estimate D2E/DX2                !
 ! A23   A(4,5,29)             106.9452         estimate D2E/DX2                !
 ! A24   A(4,5,30)             109.7422         estimate D2E/DX2                !
 ! A25   A(6,5,29)             112.9624         estimate D2E/DX2                !
 ! A26   A(6,5,30)             109.7447         estimate D2E/DX2                !
 ! A27   A(29,5,30)            104.3845         estimate D2E/DX2                !
 ! A28   A(5,6,7)              117.726          estimate D2E/DX2                !
 ! A29   A(5,6,12)             114.7896         estimate D2E/DX2                !
 ! A30   A(7,6,12)             127.4277         estimate D2E/DX2                !
 ! A31   A(6,7,8)              124.9423         estimate D2E/DX2                !
 ! A32   A(6,7,20)             117.8728         estimate D2E/DX2                !
 ! A33   A(8,7,20)             117.1054         estimate D2E/DX2                !
 ! A34   A(7,8,9)              124.3285         estimate D2E/DX2                !
 ! A35   A(7,8,17)             119.4368         estimate D2E/DX2                !
 ! A36   A(9,8,17)             116.216          estimate D2E/DX2                !
 ! A37   A(8,9,10)             118.306          estimate D2E/DX2                !
 ! A38   A(8,9,31)             108.1556         estimate D2E/DX2                !
 ! A39   A(8,9,32)             107.6577         estimate D2E/DX2                !
 ! A40   A(10,9,31)            107.6392         estimate D2E/DX2                !
 ! A41   A(10,9,32)            109.006          estimate D2E/DX2                !
 ! A42   A(31,9,32)            105.3424         estimate D2E/DX2                !
 ! A43   A(9,10,11)            112.2705         estimate D2E/DX2                !
 ! A44   A(9,10,33)            111.3755         estimate D2E/DX2                !
 ! A45   A(9,10,34)            108.8375         estimate D2E/DX2                !
 ! A46   A(11,10,33)           109.688          estimate D2E/DX2                !
 ! A47   A(11,10,34)           109.2386         estimate D2E/DX2                !
 ! A48   A(33,10,34)           105.1638         estimate D2E/DX2                !
 ! A49   A(10,11,12)           119.4982         estimate D2E/DX2                !
 ! A50   A(10,11,16)           120.7023         estimate D2E/DX2                !
 ! A51   A(12,11,16)           119.7642         estimate D2E/DX2                !
 ! A52   A(6,12,11)            122.2667         estimate D2E/DX2                !
 ! A53   A(6,12,13)            119.3236         estimate D2E/DX2                !
 ! A54   A(11,12,13)           118.321          estimate D2E/DX2                !
 ! A55   A(12,13,14)           121.6203         estimate D2E/DX2                !
 ! A56   A(12,13,35)           119.3454         estimate D2E/DX2                !
 ! A57   A(14,13,35)           119.034          estimate D2E/DX2                !
 ! A58   A(13,14,15)           119.638          estimate D2E/DX2                !
 ! A59   A(13,14,36)           120.0537         estimate D2E/DX2                !
 ! A60   A(15,14,36)           120.308          estimate D2E/DX2                !
 ! A61   A(14,15,16)           119.7295         estimate D2E/DX2                !
 ! A62   A(14,15,37)           120.1384         estimate D2E/DX2                !
 ! A63   A(16,15,37)           120.1319         estimate D2E/DX2                !
 ! A64   A(11,16,15)           120.9249         estimate D2E/DX2                !
 ! A65   A(11,16,38)           120.0986         estimate D2E/DX2                !
 ! A66   A(15,16,38)           118.9761         estimate D2E/DX2                !
 ! A67   A(8,17,18)            121.7527         estimate D2E/DX2                !
 ! A68   A(8,17,39)            119.8917         estimate D2E/DX2                !
 ! A69   A(18,17,39)           118.3551         estimate D2E/DX2                !
 ! A70   A(17,18,19)           119.4824         estimate D2E/DX2                !
 ! A71   A(17,18,40)           120.2438         estimate D2E/DX2                !
 ! A72   A(19,18,40)           120.2676         estimate D2E/DX2                !
 ! A73   A(18,19,20)           119.5497         estimate D2E/DX2                !
 ! A74   A(18,19,41)           120.3205         estimate D2E/DX2                !
 ! A75   A(20,19,41)           120.1234         estimate D2E/DX2                !
 ! A76   A(7,20,19)            122.6515         estimate D2E/DX2                !
 ! A77   A(7,20,42)            119.9513         estimate D2E/DX2                !
 ! A78   A(19,20,42)           117.3707         estimate D2E/DX2                !
 ! D1    D(21,1,2,3)            59.718          estimate D2E/DX2                !
 ! D2    D(21,1,2,24)          -64.7401         estimate D2E/DX2                !
 ! D3    D(22,1,2,3)           179.2069         estimate D2E/DX2                !
 ! D4    D(22,1,2,24)           54.7487         estimate D2E/DX2                !
 ! D5    D(23,1,2,3)           -61.8475         estimate D2E/DX2                !
 ! D6    D(23,1,2,24)          173.6944         estimate D2E/DX2                !
 ! D7    D(1,2,3,4)           -177.7172         estimate D2E/DX2                !
 ! D8    D(1,2,3,25)           -57.0371         estimate D2E/DX2                !
 ! D9    D(1,2,3,26)            61.9247         estimate D2E/DX2                !
 ! D10   D(24,2,3,4)           -52.5007         estimate D2E/DX2                !
 ! D11   D(24,2,3,25)           68.1794         estimate D2E/DX2                !
 ! D12   D(24,2,3,26)         -172.8588         estimate D2E/DX2                !
 ! D13   D(2,3,4,5)           -177.5089         estimate D2E/DX2                !
 ! D14   D(2,3,4,27)           -58.8828         estimate D2E/DX2                !
 ! D15   D(2,3,4,28)            57.3777         estimate D2E/DX2                !
 ! D16   D(25,3,4,5)            60.9777         estimate D2E/DX2                !
 ! D17   D(25,3,4,27)          179.6038         estimate D2E/DX2                !
 ! D18   D(25,3,4,28)          -64.1357         estimate D2E/DX2                !
 ! D19   D(26,3,4,5)           -56.6881         estimate D2E/DX2                !
 ! D20   D(26,3,4,27)           61.938          estimate D2E/DX2                !
 ! D21   D(26,3,4,28)          178.1985         estimate D2E/DX2                !
 ! D22   D(3,4,5,6)           -168.5466         estimate D2E/DX2                !
 ! D23   D(3,4,5,29)           -43.8321         estimate D2E/DX2                !
 ! D24   D(3,4,5,30)            68.8282         estimate D2E/DX2                !
 ! D25   D(27,4,5,6)            73.6921         estimate D2E/DX2                !
 ! D26   D(27,4,5,29)         -161.5935         estimate D2E/DX2                !
 ! D27   D(27,4,5,30)          -48.9332         estimate D2E/DX2                !
 ! D28   D(28,4,5,6)           -42.6512         estimate D2E/DX2                !
 ! D29   D(28,4,5,29)           82.0632         estimate D2E/DX2                !
 ! D30   D(28,4,5,30)         -165.2764         estimate D2E/DX2                !
 ! D31   D(4,5,6,7)            122.3979         estimate D2E/DX2                !
 ! D32   D(4,5,6,12)           -55.0697         estimate D2E/DX2                !
 ! D33   D(29,5,6,7)             1.0453         estimate D2E/DX2                !
 ! D34   D(29,5,6,12)         -176.4224         estimate D2E/DX2                !
 ! D35   D(30,5,6,7)          -114.9782         estimate D2E/DX2                !
 ! D36   D(30,5,6,12)           67.5541         estimate D2E/DX2                !
 ! D37   D(5,6,7,8)           -143.6438         estimate D2E/DX2                !
 ! D38   D(5,6,7,20)            39.7017         estimate D2E/DX2                !
 ! D39   D(12,6,7,8)            33.4609         estimate D2E/DX2                !
 ! D40   D(12,6,7,20)         -143.1936         estimate D2E/DX2                !
 ! D41   D(5,6,12,11)          120.2993         estimate D2E/DX2                !
 ! D42   D(5,6,12,13)          -56.2188         estimate D2E/DX2                !
 ! D43   D(7,6,12,11)          -56.8777         estimate D2E/DX2                !
 ! D44   D(7,6,12,13)          126.6041         estimate D2E/DX2                !
 ! D45   D(6,7,8,9)              0.5583         estimate D2E/DX2                !
 ! D46   D(6,7,8,17)          -177.8098         estimate D2E/DX2                !
 ! D47   D(20,7,8,9)           177.2361         estimate D2E/DX2                !
 ! D48   D(20,7,8,17)           -1.1321         estimate D2E/DX2                !
 ! D49   D(6,7,20,19)          178.5929         estimate D2E/DX2                !
 ! D50   D(6,7,20,42)            0.5185         estimate D2E/DX2                !
 ! D51   D(8,7,20,19)            1.6734         estimate D2E/DX2                !
 ! D52   D(8,7,20,42)         -176.401          estimate D2E/DX2                !
 ! D53   D(7,8,9,10)            24.3776         estimate D2E/DX2                !
 ! D54   D(7,8,9,31)           146.9811         estimate D2E/DX2                !
 ! D55   D(7,8,9,32)           -99.6527         estimate D2E/DX2                !
 ! D56   D(17,8,9,10)         -157.2065         estimate D2E/DX2                !
 ! D57   D(17,8,9,31)          -34.603          estimate D2E/DX2                !
 ! D58   D(17,8,9,32)           78.7632         estimate D2E/DX2                !
 ! D59   D(7,8,17,18)           -0.1178         estimate D2E/DX2                !
 ! D60   D(7,8,17,39)          179.6248         estimate D2E/DX2                !
 ! D61   D(9,8,17,18)         -178.6157         estimate D2E/DX2                !
 ! D62   D(9,8,17,39)            1.1269         estimate D2E/DX2                !
 ! D63   D(8,9,10,11)          -71.7398         estimate D2E/DX2                !
 ! D64   D(8,9,10,33)           51.7122         estimate D2E/DX2                !
 ! D65   D(8,9,10,34)          167.2007         estimate D2E/DX2                !
 ! D66   D(31,9,10,11)         165.3972         estimate D2E/DX2                !
 ! D67   D(31,9,10,33)         -71.1508         estimate D2E/DX2                !
 ! D68   D(31,9,10,34)          44.3376         estimate D2E/DX2                !
 ! D69   D(32,9,10,11)          51.6205         estimate D2E/DX2                !
 ! D70   D(32,9,10,33)         175.0725         estimate D2E/DX2                !
 ! D71   D(32,9,10,34)         -69.4391         estimate D2E/DX2                !
 ! D72   D(9,10,11,12)          62.0838         estimate D2E/DX2                !
 ! D73   D(9,10,11,16)        -115.7516         estimate D2E/DX2                !
 ! D74   D(33,10,11,12)        -62.308          estimate D2E/DX2                !
 ! D75   D(33,10,11,16)        119.8566         estimate D2E/DX2                !
 ! D76   D(34,10,11,12)       -177.0875         estimate D2E/DX2                !
 ! D77   D(34,10,11,16)          5.0771         estimate D2E/DX2                !
 ! D78   D(10,11,12,6)           5.0971         estimate D2E/DX2                !
 ! D79   D(10,11,12,13)       -178.3514         estimate D2E/DX2                !
 ! D80   D(16,11,12,6)        -177.0469         estimate D2E/DX2                !
 ! D81   D(16,11,12,13)         -0.4954         estimate D2E/DX2                !
 ! D82   D(10,11,16,15)        178.2281         estimate D2E/DX2                !
 ! D83   D(10,11,16,38)         -1.5453         estimate D2E/DX2                !
 ! D84   D(12,11,16,15)          0.3984         estimate D2E/DX2                !
 ! D85   D(12,11,16,38)       -179.375          estimate D2E/DX2                !
 ! D86   D(6,12,13,14)         177.0991         estimate D2E/DX2                !
 ! D87   D(6,12,13,35)          -3.0944         estimate D2E/DX2                !
 ! D88   D(11,12,13,14)          0.4435         estimate D2E/DX2                !
 ! D89   D(11,12,13,35)       -179.75           estimate D2E/DX2                !
 ! D90   D(12,13,14,15)         -0.2801         estimate D2E/DX2                !
 ! D91   D(12,13,14,36)        179.9094         estimate D2E/DX2                !
 ! D92   D(35,13,14,15)        179.9128         estimate D2E/DX2                !
 ! D93   D(35,13,14,36)          0.1023         estimate D2E/DX2                !
 ! D94   D(13,14,15,16)          0.1649         estimate D2E/DX2                !
 ! D95   D(13,14,15,37)       -179.9857         estimate D2E/DX2                !
 ! D96   D(36,14,15,16)        179.9749         estimate D2E/DX2                !
 ! D97   D(36,14,15,37)         -0.1756         estimate D2E/DX2                !
 ! D98   D(14,15,16,11)         -0.2284         estimate D2E/DX2                !
 ! D99   D(14,15,16,38)        179.5476         estimate D2E/DX2                !
 ! D100  D(37,15,16,11)        179.9222         estimate D2E/DX2                !
 ! D101  D(37,15,16,38)         -0.3019         estimate D2E/DX2                !
 ! D102  D(8,17,18,19)           0.9137         estimate D2E/DX2                !
 ! D103  D(8,17,18,40)        -179.9873         estimate D2E/DX2                !
 ! D104  D(39,17,18,19)       -178.8328         estimate D2E/DX2                !
 ! D105  D(39,17,18,40)          0.2662         estimate D2E/DX2                !
 ! D106  D(17,18,19,20)         -0.4036         estimate D2E/DX2                !
 ! D107  D(17,18,19,41)        178.6773         estimate D2E/DX2                !
 ! D108  D(40,18,19,20)       -179.5024         estimate D2E/DX2                !
 ! D109  D(40,18,19,41)         -0.4215         estimate D2E/DX2                !
 ! D110  D(18,19,20,7)          -0.9216         estimate D2E/DX2                !
 ! D111  D(18,19,20,42)        177.1996         estimate D2E/DX2                !
 ! D112  D(41,19,20,7)         179.9957         estimate D2E/DX2                !
 ! D113  D(41,19,20,42)         -1.8831         estimate D2E/DX2                !
 --------------------------------------------------------------------------------
 Trust Radius=3.00D-01 FncErr=1.00D-07 GrdErr=1.00D-06 EigMax=2.50D+02 EigMin=1.00D-04
 Number of steps in this run=    245 maximum allowed number of steps=    252.
 GradGradGradGradGradGradGradGradGradGradGradGradGradGradGradGradGradGrad

                          Input orientation:                          
 ---------------------------------------------------------------------
 Center     Atomic      Atomic             Coordinates (Angstroms)
 Number     Number       Type             X           Y           Z
 ---------------------------------------------------------------------
      1          6           0       -1.149300   -3.674900    4.804700
      2          7           0       -1.176700   -2.909200    3.565000
      3          6           0       -0.134600   -3.350500    2.649900
      4          6           0       -0.177300   -2.473100    1.392800
      5          6           0        0.857800   -2.907500    0.331600
      6          7           0        1.010900   -1.914700   -0.757700
      7          6           0        2.303700   -1.382200   -0.987400
      8          6           0        2.575700   -0.038600   -1.372700
      9          6           0        1.504700    1.031400   -1.583100
     10          6           0        0.166400    0.869400   -0.861600
     11          6           0       -0.671100   -0.248000   -1.449200
     12          6           0       -0.186100   -1.569800   -1.414900
     13          6           0       -0.965800   -2.580100   -1.997300
     14          6           0       -2.186900   -2.300500   -2.606800
     15          6           0       -2.655700   -0.992000   -2.638800
     16          6           0       -1.899600    0.026500   -2.065000
     17          6           0        3.900800    0.354600   -1.614900
     18          6           0        4.961700   -0.532900   -1.486800
     19          6           0        4.711300   -1.848100   -1.128700
     20          6           0        3.402700   -2.258200   -0.894600
     21          1           0       -0.192300   -3.574600    5.320700
     22          1           0       -1.927800   -3.320100    5.481900
     23          1           0       -1.335900   -4.734300    4.618100
     24          1           0       -1.107200   -1.912600    3.732400
     25          1           0        0.851200   -3.277200    3.115100
     26          1           0       -0.288400   -4.396300    2.373400
     27          1           0       -1.174600   -2.586100    0.963600
     28          1           0       -0.058800   -1.415300    1.630600
     29          1           0        1.790600   -3.106300    0.860200
     30          1           0        0.572600   -3.873600   -0.087600
     31          1           0        1.924300    1.994900   -1.289200
     32          1           0        1.322600    1.111000   -2.656200
     33          1           0        0.308600    0.699400    0.206800
     34          1           0       -0.386500    1.807200   -0.930200
     35          1           0       -0.612100   -3.598800   -1.976800
     36          1           0       -2.766000   -3.097900   -3.048700
     37          1           0       -3.602000   -0.766000   -3.109300
     38          1           0       -2.272000    1.040000   -2.103300
     39          1           0        4.115000    1.370900   -1.913600
     40          1           0        5.973000   -0.203800   -1.679200
     41          1           0        5.523900   -2.554900   -1.046000
     42          1           0        3.243300   -3.299200   -0.663500
 ---------------------------------------------------------------------
                    Distance matrix (angstroms):
                    1          2          3          4          5
     1  C    0.000000
     2  N    1.457362   0.000000
     3  C    2.403750   1.455378   0.000000
     4  C    3.745687   2.430522   1.533608   0.000000
     5  C    4.962457   3.820218   2.560395   1.544759   0.000000
     6  N    6.221339   4.945742   3.871102   2.519579   1.481778
     7  C    7.122367   5.930368   4.800986   3.607045   2.481316
     8  C    8.078278   6.833867   5.873306   4.599325   3.753186
     9  C    8.366419   7.015780   6.309250   4.895572   4.427131
    10  C    7.381645   5.972983   5.498071   4.046326   4.020788
    11  C    7.147278   5.699107   5.168748   3.643058   3.547073
    12  C    6.636462   5.251160   4.438034   2.949442   2.435042
    13  C    6.891985   5.576017   4.783396   3.482235   2.975984
    14  C    7.608937   6.283481   5.739976   4.479407   4.274674
    15  C    8.054371   6.659597   6.315759   4.958823   4.983683
    16  C    7.839393   6.390447   6.062148   4.601163   4.685649
    17  C    9.107779   7.953915   6.942675   5.802848   4.867238
    18  C    9.316623   8.297436   7.143069   6.202080   5.078120
    19  C    8.537509   7.604295   6.325960   5.535973   4.254911
    20  C    7.430327   6.425164   5.125338   4.253796   2.898564
    21  H    1.091863   2.119972   2.680806   4.079452   5.141872
    22  H    1.091121   2.099404   3.352121   4.527957   5.869872
    23  H    1.091773   2.113138   2.689207   4.105842   5.150107
    24  H    2.063323   1.012948   2.045804   2.579264   4.051727
    25  H    2.648568   2.109553   1.092513   2.161182   2.807952
    26  H    2.678206   2.102488   1.092614   2.161624   2.774752
    27  H    3.992515   2.621389   2.123562   1.091599   2.152527
    28  H    4.045972   2.687627   2.188542   1.090657   2.180417
    29  H    4.952312   4.019908   2.639897   2.134768   1.090438
    30  H    5.190281   4.163124   2.875356   2.171482   1.091062
    31  H    8.872951   7.565028   6.951898   5.618974   5.272375
    32  H    9.202182   7.817406   7.084004   5.611584   5.029049
    33  H    6.511579   5.148361   4.750458   3.421615   3.650606
    34  H    7.970217   6.563206   6.283505   4.874532   5.036747
    35  H    6.803170   5.613009   4.657898   3.579170   2.822625
    36  H    8.038815   6.804595   6.281888   5.178674   4.959295
    37  H    8.781164   7.417659   7.202145   5.908609   6.026245
    38  H    8.438673   6.994676   6.814534   5.380739   5.595279
    39  H    9.915065   8.737071   7.821525   6.643226   5.827090
    40  H   10.238000   9.270331   8.120690   7.239689   6.125241
    41  H    8.945205   8.141553   6.805239   6.201461   4.877971
    42  H    7.024051   6.129332   4.731962   4.075698   2.614242
                    6          7          8          9         10
     6  N    0.000000
     7  C    1.416916   0.000000
     8  C    2.519241   1.423974   0.000000
     9  C    3.099134   2.611269   1.528466   0.000000
    10  C    2.911218   3.107021   2.624960   1.529004   0.000000
    11  C    2.466817   3.217002   3.254445   2.527627   1.515012
    12  C    1.408431   2.533190   3.158147   3.106982   2.525885
    13  C    2.426254   3.625533   4.403586   4.395209   3.804043
    14  C    3.714019   4.861195   5.414938   5.077148   4.316481
    15  C    4.223016   5.241663   5.466217   4.745269   3.819358
    16  C    3.734742   4.562169   4.528998   3.582082   2.535154
    17  C    3.773067   2.441508   1.403267   2.490053   3.844245
    18  C    4.248503   2.834727   2.439333   3.795676   5.035099
    19  C    3.719548   2.456332   2.809736   4.333622   5.302100
    20  C    2.420215   1.408470   2.416430   3.859780   4.500734
    21  H    6.414819   7.129429   8.060194   8.470980   7.622246
    22  H    7.038730   7.969498   8.833759   8.979523   7.885276
    23  H    6.508213   7.476957   8.558031   8.931248   7.980318
    24  H    4.964610   5.847399   6.567928   6.613902   5.519639
    25  H    4.108587   4.746713   5.796790   6.408134   5.785965
    26  H    4.201227   5.205647   6.420739   6.951908   6.196746
    27  H    2.861828   4.165855   5.100275   5.172102   4.131600
    28  H    2.664139   3.526532   4.225601   4.331136   3.388455
    29  H    2.155329   2.578647   3.874662   4.813732   4.626966
    30  H    2.116230   3.164399   4.513437   5.211944   4.822875
    31  H    4.049909   3.411720   2.136918   1.091226   2.130682
    32  H    3.585571   3.156501   2.130543   1.091348   2.148432
    33  H    2.873500   3.120833   2.859931   2.178215   1.091146
    34  H    3.979324   4.172855   3.518155   2.145875   1.090813
    35  H    2.637523   3.793958   4.816849   5.106329   4.670604
    36  H    4.573141   5.735368   6.379816   6.118658   5.396466
    37  H    5.303620   6.305510   6.458240   5.624795   4.682684
    38  H    4.617177   5.296161   5.019696   3.812367   2.741663
    39  H    4.665481   3.423188   2.156086   2.652952   4.116995
    40  H    5.329050   3.915479   3.415096   4.636880   5.961278
    41  H    4.567290   3.427586   3.889779   5.413316   6.361025
    42  H    2.628559   2.159317   3.402964   4.756311   5.184957
                   11         12         13         14         15
    11  C    0.000000
    12  C    1.408388   0.000000
    13  C    2.413701   1.402793   0.000000
    14  C    2.801864   2.440850   1.393109   0.000000
    15  C    2.430498   2.816151   2.406106   1.390313   0.000000
    16  C    1.401347   2.430409   2.769644   2.406453   1.392220
    17  C    4.614418   4.521733   5.695831   6.715170   6.771218
    18  C    5.640126   5.251683   6.291812   7.448576   7.717685
    19  C    5.624346   4.913643   5.789625   7.069272   7.568751
    20  C    4.576498   3.691083   4.517008   5.846114   6.430374
    21  H    7.558245   7.027629   7.425662   8.273271   8.723062
    22  H    7.684871   7.325498   7.577036   8.156824   8.479131
    23  H    7.575023   6.908921   6.967142   7.671164   8.270990
    24  H    5.459859   5.240290   5.770183   6.442179   6.620993
    25  H    5.685621   4.950970   5.470290   6.551651   7.115325
    26  H    5.653948   4.727662   4.781263   5.727047   6.505038
    27  H    3.397327   2.768982   2.968259   3.722106   4.208574
    28  H    3.350025   3.052072   3.916767   4.823686   5.015062
    29  H    4.423028   3.382936   4.004989   5.337594   6.040103
    30  H    4.067643   2.764931   2.772503   4.054116   5.023362
    31  H    3.433992   4.144475   5.457537   6.090033   5.631997
    32  H    2.697882   3.317181   4.392624   4.894626   4.499976
    33  H    2.144695   2.832650   4.151779   4.810745   4.443574
    34  H    2.138739   3.417488   4.552218   4.788071   3.987995
    35  H    3.392595   2.148034   1.078552   2.135996   3.377862
    36  H    3.881873   3.414715   2.148087   1.080037   2.148255
    37  H    3.407995   3.896852   3.387780   2.147022   1.080708
    38  H    2.156310   3.411148   3.850002   3.379304   2.136120
    39  H    5.073781   5.234107   6.436764   7.326230   7.207745
    40  H    6.648227   6.314295   7.341317   8.475881   8.717600
    41  H    6.622868   5.806084   6.559102   7.871293   8.478533
    42  H    5.024905   3.913593   4.473550   5.853280   6.634997
                   16         17         18         19         20
    16  C    0.000000
    17  C    5.827082   0.000000
    18  C    6.908305   1.389091   0.000000
    19  C    6.935040   2.396912   1.385888   0.000000
    20  C    5.891017   2.755660   2.399550   1.391193   0.000000
    21  H    8.392339   8.960727   9.064089   8.283771   7.299787
    22  H    8.255678   9.891439  10.188055   9.483906   8.378640
    23  H    8.224767   9.600532   9.725293   8.827485   7.679535
    24  H    6.164240   7.669021   8.122510   7.582176   6.470531
    25  H    6.731625   6.697980   6.753138   5.912067   4.860680
    26  H    6.469661   7.485118   7.575655   6.614758   5.373594
    27  H    4.064938   6.407501   6.919123   6.290166   4.950970
    28  H    4.373190   5.417033   5.975135   5.527649   4.366818
    29  H    5.655865   4.749410   4.710273   3.750904   2.529321
    30  H    5.023212   5.593499   5.690539   4.723915   3.357117
    31  H    4.370203   2.589057   3.956592   4.749924   4.519982
    32  H    3.450830   2.881590   4.160884   4.751086   4.333770
    33  H    3.238830   4.042447   5.102762   5.259000   4.419721
    34  H    2.597717   4.578188   5.864223   6.276001   5.557588
    35  H    3.848147   6.010542   6.380211   5.667699   4.368865
    36  H    3.388243   7.643413   8.290724   7.820385   6.587724
    37  H    2.148670   7.731816   8.719163   8.614213   7.496491
    38  H    1.080431   6.229909   7.428358   7.619544   6.673927
    39  H    6.164880   1.080726   2.126855   3.366542   3.836157
    40  H    7.885411   2.147081   1.080765   2.144449   3.382691
    41  H    7.925297   3.379836   2.144495   1.080150   2.147194
    42  H    6.282826   3.832456   3.359038   2.115922   1.078191
                   21         22         23         24         25
    21  H    0.000000
    22  H    1.761453   0.000000
    23  H    1.773802   1.759675   0.000000
    24  H    2.474264   2.390647   2.966270   0.000000
    25  H    2.458050   3.650537   3.027467   2.465466   0.000000
    26  H    3.061209   3.675406   2.500036   2.947216   1.761020
    27  H    4.574535   4.639084   4.242187   2.850333   3.034870
    28  H    4.277527   4.685503   4.644556   2.400836   2.549218
    29  H    4.903800   5.935682   5.152397   4.251082   2.448725
    30  H    5.470300   6.130065   5.150416   4.610819   3.269648
    31  H    8.898882   9.430572   9.529283   7.048050   6.953017
    32  H    9.374471   9.819797   9.703123   7.473975   7.265426
    33  H    6.683558   6.998896   7.189509   4.610519   4.956407
    34  H    8.250772   8.353433   8.629960   6.008008   6.614188
    35  H    7.309605   7.578981   6.730970   5.973555   5.307741
    36  H    8.769152   8.574561   7.968865   7.080951   7.149036
    37  H    9.517310   9.117845   8.977490   7.372081   8.054829
    38  H    8.985291   8.755810   8.910446   6.643041   7.458170
    39  H    9.764523  10.640222  10.471336   8.362420   7.585845
    40  H    9.918257  11.109245  10.658397   9.073844   7.659239
    41  H    8.616821   9.936138   9.159076   8.198606   6.298460
    42  H    6.905783   8.031603   7.136097   6.338253   4.472186
                   26         27         28         29         30
    26  H    0.000000
    27  H    2.459616   0.000000
    28  H    3.080719   1.749477   0.000000
    29  H    2.876824   3.012260   2.621694   0.000000
    30  H    2.659146   2.411511   3.064982   1.723542   0.000000
    31  H    7.691431   5.971922   4.907890   5.537151   6.140865
    32  H    7.630370   5.745216   5.164021   5.510872   5.657424
    33  H    5.569266   3.683360   2.575683   4.136014   4.590065
    34  H    7.028998   4.848573   4.129115   5.664608   5.822485
    35  H    4.434527   3.160367   4.252899   3.750212   2.246799
    36  H    6.101108   4.346613   5.661795   6.003513   4.529467
    37  H    7.363357   5.078735   5.953361   7.093241   6.017901
    38  H    7.316343   4.874296   4.986859   6.517580   6.024804
    39  H    8.427864   7.205276   6.143685   5.756919   6.586931
    40  H    8.556036   7.984230   6.986066   5.689071   6.720487
    41  H    6.990414   6.993523   6.295190   4.227904   5.212760
    42  H    4.785321   4.761702   4.440252   2.114050   2.791816
                   31         32         33         34         35
    31  H    0.000000
    32  H    1.735515   0.000000
    33  H    2.554765   3.065025   0.000000
    34  H    2.346041   2.526815   1.732961   0.000000
    35  H    6.180259   5.136815   4.908189   5.510998   0.000000
    36  H    7.143624   5.880948   5.871195   5.848937   2.457469
    37  H    6.440134   5.289623   5.332608   4.659321   4.271629
    38  H    4.379900   3.637566   3.480239   2.349440   4.928462
    39  H    2.361867   2.901121   4.408593   4.628276   6.859110
    40  H    4.623673   4.930461   6.038062   6.711808   7.414724
    41  H    5.806630   5.803662   6.273701   7.346710   6.293378
    42  H    5.491699   5.206708   5.035741   6.270717   4.083947
                   36         37         38         39         40
    36  H    0.000000
    37  H    2.477968   0.000000
    38  H    4.273176   2.458164   0.000000
    39  H    8.282921   8.096180   6.398379   0.000000
    40  H    9.307065   9.697519   8.349067   2.446791   0.000000
    41  H    8.545648   9.525724   8.649696   4.260239   2.475945
    42  H    6.468492   7.697868   7.163813   4.912478   4.250225
                   41         42
    41  H    0.000000
    42  H    2.429285   0.000000
 Stoichiometry    C18H22N2
 Framework group  C1[X(C18H22N2)]
 Deg. of freedom   120
 Full point group                 C1      NOp   1
 Largest Abelian subgroup         C1      NOp   1
 Largest concise Abelian subgroup C1      NOp   1
                         Standard orientation:                         
 ---------------------------------------------------------------------
 Center     Atomic      Atomic             Coordinates (Angstroms)
 Number     Number       Type             X           Y           Z
 ---------------------------------------------------------------------
      1          6           0       -5.486102   -1.989396    0.729799
      2          7           0       -4.344003   -1.086830    0.799696
      3          6           0       -3.286359   -1.503900   -0.108912
      4          6           0       -2.094199   -0.552535    0.051132
      5          6           0       -0.939800   -0.880334   -0.921592
      6          7           0        0.307680   -0.150387   -0.595039
      7          6           0        1.472784   -0.916236   -0.342735
      8          6           0        2.469531   -0.591320    0.620918
      9          6           0        2.417980    0.632342    1.535358
     10          6           0        1.053299    1.247220    1.847487
     11          6           0        0.463191    1.970883    0.654446
     12          6           0        0.170241    1.249258   -0.519008
     13          6           0       -0.342621    1.950062   -1.620677
     14          6           0       -0.554545    3.326252   -1.576615
     15          6           0       -0.258992    4.030558   -0.414905
     16          6           0        0.248834    3.355240    0.691592
     17          6           0        3.603173   -1.409277    0.743226
     18          6           0        3.781701   -2.534740   -0.051151
     19          6           0        2.828421   -2.854629   -1.004889
     20          6           0        1.703008   -2.049253   -1.147134
     21          1           0       -5.209448   -3.012500    0.992259
     22          1           0       -6.261182   -1.668160    1.427370
     23          1           0       -5.925992   -1.992167   -0.269429
     24          1           0       -3.989012   -0.995727    1.744019
     25          1           0       -2.969670   -2.527768    0.103192
     26          1           0       -3.640225   -1.478854   -1.142331
     27          1           0       -2.458959    0.450646   -0.177267
     28          1           0       -1.730639   -0.525013    1.079042
     29          1           0       -0.813887   -1.963435   -0.911884
     30          1           0       -1.243550   -0.651928   -1.944326
     31          1           0        2.886194    0.367323    2.484734
     32          1           0        3.061752    1.398438    1.099819
     33          1           0        0.349923    0.493560    2.205059
     34          1           0        1.164269    1.949322    2.674899
     35          1           0       -0.576589    1.413142   -2.526353
     36          1           0       -0.949256    3.840668   -2.440361
     37          1           0       -0.420478    5.098261   -0.371744
     38          1           0        0.481193    3.915706    1.585582
     39          1           0        4.367113   -1.166129    1.467963
     40          1           0        4.664333   -3.147759    0.063831
     41          1           0        2.963986   -3.714530   -1.644354
     42          1           0        1.007121   -2.303752   -1.930376
 ---------------------------------------------------------------------
 Rotational constants (GHZ):           0.3704877           0.2566805           0.1815456
 Standard basis: 6-31G(d,p) (6D, 7F)
 There are   410 symmetry adapted cartesian basis functions of A   symmetry.
 There are   410 symmetry adapted basis functions of A   symmetry.
   410 basis functions,   714 primitive gaussians,   410 cartesian basis functions
    72 alpha electrons       72 beta electrons
       nuclear repulsion energy      1510.3206932165 Hartrees.
 NAtoms=   42 NActive=   42 NUniq=   42 SFac= 1.00D+00 NAtFMM=   60 NAOKFM=F Big=F
 Integral buffers will be    131072 words long.
 Raffenetti 2 integral format.
 Two-electron integral symmetry is turned on.
 Nuclear repulsion after empirical dispersion term =     1510.2311138992 Hartrees.
 One-electron integrals computed using PRISM.
 NBasis=   410 RedAO= T EigKep=  3.71D-04  NBF=   410
 NBsUse=   410 1.00D-06 EigRej= -1.00D+00 NBFU=   410
 ExpMin= 1.61D-01 ExpMax= 4.17D+03 ExpMxC= 6.27D+02 IAcc=3 IRadAn=         5 AccDes= 0.00D+00
 Harris functional with IExCor=  402 and IRadAn=       5 diagonalized for initial guess.
 HarFok:  IExCor=  402 AccDes= 0.00D+00 IRadAn=         5 IDoV= 1 UseB2=F ITyADJ=14
 ICtDFT=  3500011 ScaDFX=  1.000000  1.000000  1.000000  1.000000
 FoFCou: FMM=F IPFlag=           0 FMFlag=      100000 FMFlg1=           0
         NFxFlg=           0 DoJE=T BraDBF=F KetDBF=T FulRan=T
         wScrn=  0.000000 ICntrl=       500 IOpCl=  0 I1Cent=   200000004 NGrid=           0
         NMat0=    1 NMatS0=      1 NMatT0=    0 NMatD0=    1 NMtDS0=    0 NMtDT0=    0
 Petite list used in FoFCou.
 Requested convergence on RMS density matrix=1.00D-08 within 128 cycles.
 Requested convergence on MAX density matrix=1.00D-06.
 Requested convergence on             energy=1.00D-06.
 No special actions if energy rises.
 Integral accuracy reduced to 1.0D-05 until final iterations.
 Initial convergence to 1.0D-05 achieved.  Increase integral accuracy.
 SCF Done:  E(RB3LYP) =  -808.768337846     A.U. after   14 cycles
            NFock= 14  Conv=0.72D-08     -V/T= 2.0097

 **********************************************************************

            Population analysis using the SCF Density.

 **********************************************************************

 Orbital symmetries:
       Occupied  (A) (A) (A) (A) (A) (A) (A) (A) (A) (A) (A) (A)
                 (A) (A) (A) (A) (A) (A) (A) (A) (A) (A) (A) (A)
                 (A) (A) (A) (A) (A) (A) (A) (A) (A) (A) (A) (A)
                 (A) (A) (A) (A) (A) (A) (A) (A) (A) (A) (A) (A)
                 (A) (A) (A) (A) (A) (A) (A) (A) (A) (A) (A) (A)
                 (A) (A) (A) (A) (A) (A) (A) (A) (A) (A) (A) (A)
       Virtual   (A) (A) (A) (A) (A) (A) (A) (A) (A) (A) (A) (A)
                 (A) (A) (A) (A) (A) (A) (A) (A) (A) (A) (A) (A)
                 (A) (A) (A) (A) (A) (A) (A) (A) (A) (A) (A) (A)
                 (A) (A) (A) (A) (A) (A) (A) (A) (A) (A) (A) (A)
                 (A) (A) (A) (A) (A) (A) (A) (A) (A) (A) (A) (A)
                 (A) (A) (A) (A) (A) (A) (A) (A) (A) (A) (A) (A)
                 (A) (A) (A) (A) (A) (A) (A) (A) (A) (A) (A) (A)
                 (A) (A) (A) (A) (A) (A) (A) (A) (A) (A) (A) (A)
                 (A) (A) (A) (A) (A) (A) (A) (A) (A) (A) (A) (A)
                 (A) (A) (A) (A) (A) (A) (A) (A) (A) (A) (A) (A)
                 (A) (A) (A) (A) (A) (A) (A) (A) (A) (A) (A) (A)
                 (A) (A) (A) (A) (A) (A) (A) (A) (A) (A) (A) (A)
                 (A) (A) (A) (A) (A) (A) (A) (A) (A) (A) (A) (A)
                 (A) (A) (A) (A) (A) (A) (A) (A) (A) (A) (A) (A)
                 (A) (A) (A) (A) (A) (A) (A) (A) (A) (A) (A) (A)
                 (A) (A) (A) (A) (A) (A) (A) (A) (A) (A) (A) (A)
                 (A) (A) (A) (A) (A) (A) (A) (A) (A) (A) (A) (A)
                 (A) (A) (A) (A) (A) (A) (A) (A) (A) (A) (A) (A)
                 (A) (A) (A) (A) (A) (A) (A) (A) (A) (A) (A) (A)
                 (A) (A) (A) (A) (A) (A) (A) (A) (A) (A) (A) (A)
                 (A) (A) (A) (A) (A) (A) (A) (A) (A) (A) (A) (A)
                 (A) (A) (A) (A) (A) (A) (A) (A) (A) (A) (A) (A)
                 (A) (A) (A) (A) (A) (A) (A) (A) (A) (A) (A) (A)
                 (A) (A) (A) (A) (A) (A) (A) (A) (A) (A) (A) (A)
                 (A) (A) (A) (A) (A) (A) (A) (A) (A) (A) (A) (A)
                 (A) (A) (A) (A) (A) (A) (A) (A) (A) (A) (A) (A)
                 (A) (A) (A) (A) (A) (A) (A) (A) (A) (A) (A) (A)
                 (A) (A) (A) (A) (A) (A) (A) (A) (A) (A) (A) (A)
                 (A) (A)
 The electronic state is 1-A.
 Alpha  occ. eigenvalues --  -14.34549 -14.31157 -10.22361 -10.21862 -10.21552
 Alpha  occ. eigenvalues --  -10.20332 -10.19687 -10.18875 -10.18799 -10.18485
 Alpha  occ. eigenvalues --  -10.18448 -10.18336 -10.18297 -10.18205 -10.18096
 Alpha  occ. eigenvalues --  -10.17708 -10.17699 -10.17695 -10.17544 -10.17158
 Alpha  occ. eigenvalues --   -0.94392  -0.89776  -0.84862  -0.83735  -0.79279
 Alpha  occ. eigenvalues --   -0.76966  -0.74890  -0.74753  -0.71889  -0.70263
 Alpha  occ. eigenvalues --   -0.67406  -0.64400  -0.63559  -0.60801  -0.59576
 Alpha  occ. eigenvalues --   -0.58560  -0.57440  -0.56033  -0.51415  -0.50237
 Alpha  occ. eigenvalues --   -0.48576  -0.47316  -0.47017  -0.46531  -0.45043
 Alpha  occ. eigenvalues --   -0.44917  -0.43787  -0.43172  -0.42650  -0.42460
 Alpha  occ. eigenvalues --   -0.41539  -0.40818  -0.39631  -0.38744  -0.38218
 Alpha  occ. eigenvalues --   -0.37459  -0.37340  -0.35756  -0.35418  -0.34983
 Alpha  occ. eigenvalues --   -0.34758  -0.33898  -0.33222  -0.32856  -0.32498
 Alpha  occ. eigenvalues --   -0.32126  -0.27913  -0.24284  -0.23777  -0.23168
 Alpha  occ. eigenvalues --   -0.21358  -0.18425
 Alpha virt. eigenvalues --   -0.00107   0.00395   0.00941   0.01950   0.08663
 Alpha virt. eigenvalues --    0.09057   0.10017   0.10615   0.11016   0.11835
 Alpha virt. eigenvalues --    0.13025   0.13759   0.14201   0.14499   0.15132
 Alpha virt. eigenvalues --    0.15799   0.16343   0.16985   0.17242   0.17566
 Alpha virt. eigenvalues --    0.17930   0.18586   0.18905   0.19018   0.20039
 Alpha virt. eigenvalues --    0.20105   0.21325   0.22487   0.22711   0.23801
 Alpha virt. eigenvalues --    0.24517   0.24672   0.25622   0.26292   0.26861
 Alpha virt. eigenvalues --    0.28952   0.29815   0.30415   0.32170   0.33190
 Alpha virt. eigenvalues --    0.34192   0.35312   0.35577   0.36631   0.38254
 Alpha virt. eigenvalues --    0.40935   0.46824   0.48285   0.49958   0.50572
 Alpha virt. eigenvalues --    0.51587   0.52000   0.52737   0.53749   0.54170
 Alpha virt. eigenvalues --    0.54756   0.54780   0.55521   0.56338   0.56618
 Alpha virt. eigenvalues --    0.57993   0.58247   0.58827   0.59160   0.60103
 Alpha virt. eigenvalues --    0.60605   0.60815   0.61436   0.61531   0.61644
 Alpha virt. eigenvalues --    0.62087   0.62266   0.62432   0.63054   0.63493
 Alpha virt. eigenvalues --    0.64688   0.66329   0.67359   0.68066   0.68708
 Alpha virt. eigenvalues --    0.70699   0.71622   0.71923   0.73715   0.75488
 Alpha virt. eigenvalues --    0.75746   0.76256   0.77401   0.78928   0.80126
 Alpha virt. eigenvalues --    0.80389   0.80953   0.81162   0.81994   0.82504
 Alpha virt. eigenvalues --    0.82789   0.83391   0.83719   0.84063   0.85131
 Alpha virt. eigenvalues --    0.86158   0.87272   0.88367   0.88993   0.89606
 Alpha virt. eigenvalues --    0.90487   0.90736   0.91993   0.92339   0.92821
 Alpha virt. eigenvalues --    0.93544   0.94588   0.95178   0.95625   0.95830
 Alpha virt. eigenvalues --    0.97150   0.97867   0.98524   0.99876   1.02247
 Alpha virt. eigenvalues --    1.03362   1.04450   1.05399   1.05758   1.06785
 Alpha virt. eigenvalues --    1.08769   1.10904   1.11163   1.12328   1.13125
 Alpha virt. eigenvalues --    1.13540   1.18001   1.19193   1.19747   1.21133
 Alpha virt. eigenvalues --    1.23046   1.24144   1.25220   1.26900   1.29047
 Alpha virt. eigenvalues --    1.30548   1.33909   1.34392   1.35341   1.36021
 Alpha virt. eigenvalues --    1.36757   1.37972   1.40168   1.41372   1.41810
 Alpha virt. eigenvalues --    1.42547   1.42900   1.43905   1.44942   1.47049
 Alpha virt. eigenvalues --    1.49789   1.50186   1.51592   1.54213   1.56603
 Alpha virt. eigenvalues --    1.59265   1.63197   1.64130   1.67408   1.69850
 Alpha virt. eigenvalues --    1.70429   1.71700   1.73887   1.75097   1.76335
 Alpha virt. eigenvalues --    1.77753   1.78322   1.78712   1.80696   1.81008
 Alpha virt. eigenvalues --    1.82491   1.83945   1.84789   1.86028   1.87051
 Alpha virt. eigenvalues --    1.87931   1.88369   1.88826   1.89800   1.91026
 Alpha virt. eigenvalues --    1.92093   1.92692   1.93265   1.94219   1.95411
 Alpha virt. eigenvalues --    1.96656   1.96970   1.98310   1.98398   1.99231
 Alpha virt. eigenvalues --    2.00442   2.00921   2.01750   2.02599   2.02895
 Alpha virt. eigenvalues --    2.04088   2.04382   2.06791   2.07810   2.08400
 Alpha virt. eigenvalues --    2.08829   2.10294   2.11129   2.14020   2.14310
 Alpha virt. eigenvalues --    2.15727   2.17126   2.18605   2.19759   2.21700
 Alpha virt. eigenvalues --    2.22585   2.22894   2.25501   2.25802   2.27058
 Alpha virt. eigenvalues --    2.28084   2.28717   2.30079   2.30806   2.31791
 Alpha virt. eigenvalues --    2.32067   2.32920   2.34026   2.35553   2.37469
 Alpha virt. eigenvalues --    2.38725   2.39532   2.40238   2.40873   2.41238
 Alpha virt. eigenvalues --    2.42015   2.43242   2.43581   2.44245   2.46113
 Alpha virt. eigenvalues --    2.46823   2.47316   2.49178   2.49871   2.50436
 Alpha virt. eigenvalues --    2.52250   2.52701   2.53877   2.55564   2.56486
 Alpha virt. eigenvalues --    2.57185   2.57301   2.58991   2.59615   2.60204
 Alpha virt. eigenvalues --    2.60994   2.63428   2.63952   2.64548   2.66196
 Alpha virt. eigenvalues --    2.66676   2.67318   2.68879   2.70574   2.71824
 Alpha virt. eigenvalues --    2.73211   2.73810   2.74542   2.75065   2.75457
 Alpha virt. eigenvalues --    2.77737   2.78421   2.79544   2.81564   2.82095
 Alpha virt. eigenvalues --    2.83015   2.84512   2.86949   2.88270   2.88719
 Alpha virt. eigenvalues --    2.91685   2.92060   2.93551   2.94021   2.97292
 Alpha virt. eigenvalues --    2.98360   2.99239   3.00176   3.06142   3.07360
 Alpha virt. eigenvalues --    3.09352   3.15732   3.20360   3.22088   3.23217
 Alpha virt. eigenvalues --    3.25850   3.26005   3.26531   3.30068   3.30701
 Alpha virt. eigenvalues --    3.31698   3.32056   3.36122   3.37606   3.38788
 Alpha virt. eigenvalues --    3.40712   3.42727   3.43424   3.45053   3.46237
 Alpha virt. eigenvalues --    3.49562   3.49743   3.51652   3.54808   3.56399
 Alpha virt. eigenvalues --    3.59789   3.86315   3.87287   4.04467   4.14288
 Alpha virt. eigenvalues --    4.14750   4.16928   4.17788   4.20189   4.23602
 Alpha virt. eigenvalues --    4.25048   4.34837   4.40350   4.44675   4.46999
 Alpha virt. eigenvalues --    4.48466   4.50368   4.55139   4.56919   4.66477
 Alpha virt. eigenvalues --    4.73771   4.85600   4.88181
          Condensed to atoms (all electrons):
               1          2          3          4          5          6
     1  C    4.791156   0.318576  -0.051393   0.004976  -0.000146   0.000001
     2  N    0.318576   6.792678   0.318599  -0.045376   0.003075  -0.000051
     3  C   -0.051393   0.318599   4.796644   0.361236  -0.031724   0.003141
     4  C    0.004976  -0.045376   0.361236   5.001515   0.351786  -0.055661
     5  C   -0.000146   0.003075  -0.031724   0.351786   4.827005   0.300222
     6  N    0.000001  -0.000051   0.003141  -0.055661   0.300222   7.226704
     7  C   -0.000000   0.000000  -0.000074   0.000656  -0.033248   0.264473
     8  C   -0.000000   0.000000  -0.000003   0.000082   0.004191  -0.064937
     9  C   -0.000000   0.000000  -0.000001   0.000056   0.000001  -0.015243
    10  C    0.000000   0.000000   0.000011  -0.000637  -0.000318  -0.007812
    11  C   -0.000000   0.000001   0.000004   0.001964   0.002394  -0.074997
    12  C    0.000000   0.000001   0.000226  -0.001481  -0.039981   0.263688
    13  C   -0.000000   0.000001   0.000048  -0.004718  -0.003827  -0.081411
    14  C   -0.000000   0.000000  -0.000003  -0.000297   0.000247   0.006131
    15  C    0.000000  -0.000000  -0.000000   0.000011  -0.000002   0.000012
    16  C    0.000000  -0.000000   0.000002   0.000082  -0.000196   0.007362
    17  C   -0.000000   0.000000   0.000000  -0.000000  -0.000087   0.006462
    18  C    0.000000  -0.000000   0.000000  -0.000000  -0.000005   0.000010
    19  C   -0.000000  -0.000000   0.000000  -0.000002   0.000070   0.006034
    20  C   -0.000000   0.000000  -0.000024   0.000475  -0.013015  -0.078210
    21  H    0.370477  -0.053241  -0.008589   0.000036   0.000021  -0.000000
    22  H    0.385872  -0.032528   0.005313  -0.000256   0.000001  -0.000000
    23  H    0.392884  -0.039623  -0.004308   0.000190  -0.000003   0.000000
    24  H   -0.038191   0.344050  -0.041690  -0.004280  -0.000095  -0.000003
    25  H   -0.005429  -0.057195   0.366107  -0.047391  -0.001894  -0.000033
    26  H   -0.003174  -0.044549   0.383877  -0.028249  -0.003743   0.000039
    27  H    0.000068   0.005231  -0.037786   0.377458  -0.029460  -0.004490
    28  H    0.000125  -0.004892  -0.030805   0.380846  -0.038439   0.001376
    29  H   -0.000004   0.000032  -0.004332  -0.041036   0.382811  -0.029874
    30  H    0.000007  -0.000125  -0.000262  -0.049622   0.377265  -0.044294
    31  H    0.000000  -0.000000  -0.000000  -0.000001   0.000010   0.000039
    32  H   -0.000000   0.000000  -0.000000  -0.000000   0.000003   0.000410
    33  H    0.000000  -0.000000  -0.000021  -0.000341   0.000136   0.004569
    34  H    0.000000  -0.000000  -0.000000   0.000007   0.000002   0.000192
    35  H    0.000000   0.000000  -0.000007   0.000069   0.000934  -0.006606
    36  H    0.000000  -0.000000   0.000000  -0.000006   0.000002  -0.000145
    37  H    0.000000   0.000000   0.000000   0.000000  -0.000000   0.000005
    38  H   -0.000000   0.000000  -0.000000  -0.000002   0.000003  -0.000123
    39  H    0.000000  -0.000000   0.000000   0.000000   0.000002  -0.000089
    40  H    0.000000   0.000000  -0.000000  -0.000000   0.000000   0.000005
    41  H    0.000000  -0.000000   0.000000  -0.000000   0.000001  -0.000132
    42  H    0.000000  -0.000000  -0.000001   0.000121   0.002775  -0.011058
               7          8          9         10         11         12
     1  C   -0.000000  -0.000000  -0.000000   0.000000  -0.000000   0.000000
     2  N    0.000000   0.000000   0.000000   0.000000   0.000001   0.000001
     3  C   -0.000074  -0.000003  -0.000001   0.000011   0.000004   0.000226
     4  C    0.000656   0.000082   0.000056  -0.000637   0.001964  -0.001481
     5  C   -0.033248   0.004191   0.000001  -0.000318   0.002394  -0.039981
     6  N    0.264473  -0.064937  -0.015243  -0.007812  -0.074997   0.263688
     7  C    4.671719   0.521011  -0.054186  -0.002104  -0.007210  -0.015715
     8  C    0.521011   4.815749   0.353673  -0.030703  -0.004407  -0.003242
     9  C   -0.054186   0.353673   5.051676   0.336619  -0.041097  -0.000179
    10  C   -0.002104  -0.030703   0.336619   5.050668   0.364670  -0.067275
    11  C   -0.007210  -0.004407  -0.041097   0.364670   4.800877   0.522676
    12  C   -0.015715  -0.003242  -0.000179  -0.067275   0.522676   4.712763
    13  C    0.004958  -0.000091   0.000008   0.008945  -0.053456   0.506753
    14  C   -0.000130  -0.000006   0.000032  -0.000141  -0.035375  -0.018858
    15  C    0.000023   0.000002  -0.000137   0.007429  -0.028190  -0.044183
    16  C   -0.000025  -0.000053  -0.002016  -0.060266   0.522825  -0.008324
    17  C   -0.004752   0.514909  -0.063686   0.003466   0.000171  -0.000422
    18  C   -0.042952  -0.027167   0.006829  -0.000172  -0.000003   0.000038
    19  C   -0.019379  -0.036085  -0.000067   0.000001   0.000002  -0.000094
    20  C    0.490439  -0.043612   0.008344  -0.000128  -0.000043   0.003618
    21  H    0.000000  -0.000000   0.000000  -0.000000  -0.000000  -0.000000
    22  H   -0.000000   0.000000   0.000000  -0.000000   0.000000   0.000000
    23  H   -0.000000   0.000000  -0.000000   0.000000  -0.000000   0.000000
    24  H   -0.000000   0.000000   0.000000  -0.000001   0.000000   0.000000
    25  H   -0.000006  -0.000000   0.000000  -0.000000  -0.000002   0.000006
    26  H    0.000004  -0.000000   0.000000  -0.000000  -0.000000  -0.000005
    27  H   -0.000215   0.000010   0.000002  -0.000023   0.000181   0.006113
    28  H    0.001464  -0.000122  -0.000065  -0.000209  -0.000357  -0.001336
    29  H   -0.003828   0.000427   0.000001  -0.000035   0.000005   0.004359
    30  H    0.001939  -0.000265  -0.000013   0.000022  -0.000647  -0.006452
    31  H    0.003674  -0.033787   0.364148  -0.032631   0.004890   0.000249
    32  H   -0.001817  -0.033980   0.372886  -0.041344  -0.003475  -0.000548
    33  H    0.000423  -0.004492  -0.039532   0.366237  -0.028684  -0.009163
    34  H    0.000153   0.003947  -0.027689   0.363010  -0.031774   0.005829
    35  H    0.000102   0.000021   0.000002  -0.000184   0.005382  -0.038892
    36  H    0.000000   0.000000  -0.000000   0.000009   0.001014   0.003501
    37  H   -0.000000   0.000000   0.000001  -0.000179   0.003789   0.001131
    38  H   -0.000005   0.000005   0.000372  -0.011125  -0.036832   0.004703
    39  H    0.004364  -0.046061  -0.010250   0.000210  -0.000004  -0.000001
    40  H    0.001066   0.004036  -0.000176   0.000002   0.000000  -0.000000
    41  H    0.003736   0.001032   0.000008  -0.000000   0.000000   0.000000
    42  H   -0.039517   0.004561  -0.000158   0.000004  -0.000000   0.000062
              13         14         15         16         17         18
     1  C   -0.000000  -0.000000   0.000000   0.000000  -0.000000   0.000000
     2  N    0.000001   0.000000  -0.000000  -0.000000   0.000000  -0.000000
     3  C    0.000048  -0.000003  -0.000000   0.000002   0.000000   0.000000
     4  C   -0.004718  -0.000297   0.000011   0.000082  -0.000000  -0.000000
     5  C   -0.003827   0.000247  -0.000002  -0.000196  -0.000087  -0.000005
     6  N   -0.081411   0.006131   0.000012   0.007362   0.006462   0.000010
     7  C    0.004958  -0.000130   0.000023  -0.000025  -0.004752  -0.042952
     8  C   -0.000091  -0.000006   0.000002  -0.000053   0.514909  -0.027167
     9  C    0.000008   0.000032  -0.000137  -0.002016  -0.063686   0.006829
    10  C    0.008945  -0.000141   0.007429  -0.060266   0.003466  -0.000172
    11  C   -0.053456  -0.035375  -0.028190   0.522825   0.000171  -0.000003
    12  C    0.506753  -0.018858  -0.044183  -0.008324  -0.000422   0.000038
    13  C    4.947822   0.517317  -0.031683  -0.055474  -0.000010   0.000001
    14  C    0.517317   4.827598   0.544096  -0.030971  -0.000000   0.000000
    15  C   -0.031683   0.544096   4.836842   0.511470  -0.000000   0.000000
    16  C   -0.055474  -0.030971   0.511470   4.933798   0.000003  -0.000000
    17  C   -0.000010  -0.000000  -0.000000   0.000003   4.928223   0.517091
    18  C    0.000001   0.000000   0.000000  -0.000000   0.517091   4.835434
    19  C   -0.000005   0.000000   0.000000  -0.000000  -0.031780   0.545254
    20  C   -0.000009  -0.000003  -0.000000   0.000005  -0.056231  -0.032320
    21  H    0.000000   0.000000   0.000000  -0.000000  -0.000000   0.000000
    22  H    0.000000  -0.000000  -0.000000   0.000000   0.000000  -0.000000
    23  H   -0.000000  -0.000000   0.000000  -0.000000   0.000000  -0.000000
    24  H    0.000000   0.000000   0.000000  -0.000000  -0.000000  -0.000000
    25  H   -0.000005  -0.000000   0.000000   0.000000   0.000000   0.000000
    26  H    0.000008   0.000000   0.000000  -0.000000  -0.000000   0.000000
    27  H    0.002387   0.000242   0.000018  -0.000108   0.000000  -0.000000
    28  H    0.000238   0.000003   0.000003   0.000014  -0.000000   0.000000
    29  H    0.000098  -0.000000  -0.000000   0.000002  -0.000026  -0.000030
    30  H    0.003205  -0.000214   0.000006   0.000021   0.000005   0.000001
    31  H    0.000009  -0.000000   0.000004  -0.000057  -0.006903   0.000360
    32  H   -0.000189  -0.000006  -0.000075   0.001744  -0.003345  -0.000212
    33  H   -0.000138   0.000041  -0.000280   0.002864   0.000334  -0.000001
    34  H   -0.000193   0.000004   0.000227  -0.007229  -0.000146   0.000002
    35  H    0.358931  -0.040747   0.004943   0.000724  -0.000000  -0.000000
    36  H   -0.035180   0.364205  -0.041381   0.004525   0.000000  -0.000000
    37  H    0.004582  -0.041551   0.364925  -0.037328   0.000000  -0.000000
    38  H    0.000531   0.004939  -0.045538   0.362425  -0.000000  -0.000000
    39  H   -0.000000   0.000000  -0.000000  -0.000000   0.367804  -0.043987
    40  H   -0.000000   0.000000  -0.000000   0.000000  -0.038155   0.364084
    41  H    0.000000   0.000000  -0.000000   0.000000   0.004700  -0.041564
    42  H    0.000013   0.000000   0.000000  -0.000000   0.000869   0.005065
              19         20         21         22         23         24
     1  C   -0.000000  -0.000000   0.370477   0.385872   0.392884  -0.038191
     2  N   -0.000000   0.000000  -0.053241  -0.032528  -0.039623   0.344050
     3  C    0.000000  -0.000024  -0.008589   0.005313  -0.004308  -0.041690
     4  C   -0.000002   0.000475   0.000036  -0.000256   0.000190  -0.004280
     5  C    0.000070  -0.013015   0.000021   0.000001  -0.000003  -0.000095
     6  N    0.006034  -0.078210  -0.000000  -0.000000   0.000000  -0.000003
     7  C   -0.019379   0.490439   0.000000  -0.000000  -0.000000  -0.000000
     8  C   -0.036085  -0.043612  -0.000000   0.000000   0.000000   0.000000
     9  C   -0.000067   0.008344   0.000000   0.000000  -0.000000   0.000000
    10  C    0.000001  -0.000128  -0.000000  -0.000000   0.000000  -0.000001
    11  C    0.000002  -0.000043  -0.000000   0.000000  -0.000000   0.000000
    12  C   -0.000094   0.003618  -0.000000   0.000000   0.000000   0.000000
    13  C   -0.000005  -0.000009   0.000000   0.000000  -0.000000   0.000000
    14  C    0.000000  -0.000003   0.000000  -0.000000  -0.000000   0.000000
    15  C    0.000000  -0.000000   0.000000  -0.000000   0.000000   0.000000
    16  C   -0.000000   0.000005  -0.000000   0.000000  -0.000000  -0.000000
    17  C   -0.031780  -0.056231  -0.000000   0.000000   0.000000  -0.000000
    18  C    0.545254  -0.032320   0.000000  -0.000000  -0.000000  -0.000000
    19  C    4.815965   0.529142   0.000000   0.000000   0.000000   0.000000
    20  C    0.529142   4.968170   0.000000   0.000000   0.000000   0.000000
    21  H    0.000000   0.000000   0.691966  -0.041334  -0.048454  -0.004654
    22  H    0.000000   0.000000  -0.041334   0.610989  -0.027676  -0.003214
    23  H    0.000000   0.000000  -0.048454  -0.027676   0.604994   0.005818
    24  H    0.000000   0.000000  -0.004654  -0.003214   0.005818   0.499279
    25  H   -0.000000  -0.000020   0.015436  -0.000242  -0.002325  -0.005117
    26  H   -0.000000   0.000001  -0.002575   0.000111   0.006884   0.006865
    27  H    0.000000  -0.000008   0.000048  -0.000002  -0.000044  -0.000994
    28  H   -0.000002   0.000057  -0.000048   0.000004   0.000009   0.006138
    29  H    0.000371   0.004296   0.000003   0.000000  -0.000000  -0.000003
    30  H   -0.000041   0.000717   0.000000  -0.000000  -0.000002   0.000008
    31  H    0.000010  -0.000166  -0.000000  -0.000000   0.000000  -0.000000
    32  H    0.000062  -0.000258   0.000000   0.000000  -0.000000  -0.000000
    33  H   -0.000012  -0.000081   0.000000   0.000000  -0.000000  -0.000002
    34  H    0.000000   0.000003   0.000000  -0.000000  -0.000000   0.000000
    35  H    0.000001   0.000027   0.000000  -0.000000   0.000000  -0.000000
    36  H    0.000000   0.000000  -0.000000  -0.000000  -0.000000  -0.000000
    37  H   -0.000000   0.000000   0.000000   0.000000  -0.000000   0.000000
    38  H    0.000000  -0.000000   0.000000  -0.000000   0.000000   0.000000
    39  H    0.005395   0.000523  -0.000000  -0.000000   0.000000   0.000000
    40  H   -0.042692   0.004922  -0.000000   0.000000  -0.000000   0.000000
    41  H    0.363615  -0.036659  -0.000000  -0.000000   0.000000  -0.000000
    42  H   -0.041066   0.360405   0.000000  -0.000000  -0.000000   0.000000
              25         26         27         28         29         30
     1  C   -0.005429  -0.003174   0.000068   0.000125  -0.000004   0.000007
     2  N   -0.057195  -0.044549   0.005231  -0.004892   0.000032  -0.000125
     3  C    0.366107   0.383877  -0.037786  -0.030805  -0.004332  -0.000262
     4  C   -0.047391  -0.028249   0.377458   0.380846  -0.041036  -0.049622
     5  C   -0.001894  -0.003743  -0.029460  -0.038439   0.382811   0.377265
     6  N   -0.000033   0.000039  -0.004490   0.001376  -0.029874  -0.044294
     7  C   -0.000006   0.000004  -0.000215   0.001464  -0.003828   0.001939
     8  C   -0.000000  -0.000000   0.000010  -0.000122   0.000427  -0.000265
     9  C    0.000000   0.000000   0.000002  -0.000065   0.000001  -0.000013
    10  C   -0.000000  -0.000000  -0.000023  -0.000209  -0.000035   0.000022
    11  C   -0.000002  -0.000000   0.000181  -0.000357   0.000005  -0.000647
    12  C    0.000006  -0.000005   0.006113  -0.001336   0.004359  -0.006452
    13  C   -0.000005   0.000008   0.002387   0.000238   0.000098   0.003205
    14  C   -0.000000   0.000000   0.000242   0.000003  -0.000000  -0.000214
    15  C    0.000000   0.000000   0.000018   0.000003  -0.000000   0.000006
    16  C    0.000000  -0.000000  -0.000108   0.000014   0.000002   0.000021
    17  C    0.000000  -0.000000   0.000000  -0.000000  -0.000026   0.000005
    18  C    0.000000   0.000000  -0.000000   0.000000  -0.000030   0.000001
    19  C   -0.000000  -0.000000   0.000000  -0.000002   0.000371  -0.000041
    20  C   -0.000020   0.000001  -0.000008   0.000057   0.004296   0.000717
    21  H    0.015436  -0.002575   0.000048  -0.000048   0.000003   0.000000
    22  H   -0.000242   0.000111  -0.000002   0.000004   0.000000  -0.000000
    23  H   -0.002325   0.006884  -0.000044   0.000009  -0.000000  -0.000002
    24  H   -0.005117   0.006865  -0.000994   0.006138  -0.000003   0.000008
    25  H    0.720859  -0.059908   0.007255  -0.007348   0.007116  -0.000424
    26  H   -0.059908   0.645094  -0.008817   0.005637  -0.001166   0.004079
    27  H    0.007255  -0.008817   0.600299  -0.040094   0.006080  -0.009712
    28  H   -0.007348   0.005637  -0.040094   0.624239  -0.003543   0.005890
    29  H    0.007116  -0.001166   0.006080  -0.003543   0.610755  -0.045056
    30  H   -0.000424   0.004079  -0.009712   0.005890  -0.045056   0.663559
    31  H    0.000000  -0.000000   0.000000  -0.000001  -0.000000   0.000000
    32  H    0.000000  -0.000000   0.000000   0.000002   0.000000  -0.000000
    33  H    0.000004   0.000000   0.000059   0.003332  -0.000008   0.000021
    34  H   -0.000000   0.000000  -0.000003  -0.000007  -0.000000   0.000000
    35  H    0.000001  -0.000009   0.000079  -0.000012  -0.000081   0.000975
    36  H   -0.000000   0.000000   0.000003   0.000000  -0.000000   0.000015
    37  H    0.000000   0.000000  -0.000001   0.000000  -0.000000  -0.000000
    38  H   -0.000000  -0.000000  -0.000000  -0.000003  -0.000000  -0.000000
    39  H   -0.000000  -0.000000   0.000000  -0.000000   0.000000  -0.000000
    40  H    0.000000   0.000000   0.000000   0.000000  -0.000000   0.000000
    41  H    0.000000   0.000000  -0.000000   0.000000   0.000007   0.000000
    42  H   -0.000006   0.000003  -0.000005   0.000018   0.000410   0.000552
              31         32         33         34         35         36
     1  C    0.000000  -0.000000   0.000000   0.000000   0.000000   0.000000
     2  N   -0.000000   0.000000  -0.000000  -0.000000   0.000000  -0.000000
     3  C   -0.000000  -0.000000  -0.000021  -0.000000  -0.000007   0.000000
     4  C   -0.000001  -0.000000  -0.000341   0.000007   0.000069  -0.000006
     5  C    0.000010   0.000003   0.000136   0.000002   0.000934   0.000002
     6  N    0.000039   0.000410   0.004569   0.000192  -0.006606  -0.000145
     7  C    0.003674  -0.001817   0.000423   0.000153   0.000102   0.000000
     8  C   -0.033787  -0.033980  -0.004492   0.003947   0.000021   0.000000
     9  C    0.364148   0.372886  -0.039532  -0.027689   0.000002  -0.000000
    10  C   -0.032631  -0.041344   0.366237   0.363010  -0.000184   0.000009
    11  C    0.004890  -0.003475  -0.028684  -0.031774   0.005382   0.001014
    12  C    0.000249  -0.000548  -0.009163   0.005829  -0.038892   0.003501
    13  C    0.000009  -0.000189  -0.000138  -0.000193   0.358931  -0.035180
    14  C   -0.000000  -0.000006   0.000041   0.000004  -0.040747   0.364205
    15  C    0.000004  -0.000075  -0.000280   0.000227   0.004943  -0.041381
    16  C   -0.000057   0.001744   0.002864  -0.007229   0.000724   0.004525
    17  C   -0.006903  -0.003345   0.000334  -0.000146  -0.000000   0.000000
    18  C    0.000360  -0.000212  -0.000001   0.000002  -0.000000  -0.000000
    19  C    0.000010   0.000062  -0.000012   0.000000   0.000001   0.000000
    20  C   -0.000166  -0.000258  -0.000081   0.000003   0.000027   0.000000
    21  H   -0.000000   0.000000   0.000000   0.000000   0.000000  -0.000000
    22  H   -0.000000   0.000000   0.000000  -0.000000  -0.000000  -0.000000
    23  H    0.000000  -0.000000  -0.000000  -0.000000   0.000000  -0.000000
    24  H   -0.000000  -0.000000  -0.000002   0.000000  -0.000000  -0.000000
    25  H    0.000000   0.000000   0.000004  -0.000000   0.000001  -0.000000
    26  H   -0.000000  -0.000000   0.000000   0.000000  -0.000009   0.000000
    27  H    0.000000   0.000000   0.000059  -0.000003   0.000079   0.000003
    28  H   -0.000001   0.000002   0.003332  -0.000007  -0.000012   0.000000
    29  H   -0.000000   0.000000  -0.000008  -0.000000  -0.000081  -0.000000
    30  H    0.000000  -0.000000   0.000021   0.000000   0.000975   0.000015
    31  H    0.639016  -0.036847  -0.002178  -0.005949  -0.000000   0.000000
    32  H   -0.036847   0.621122   0.006120  -0.002675   0.000001  -0.000000
    33  H   -0.002178   0.006120   0.626046  -0.037259  -0.000003  -0.000000
    34  H   -0.005949  -0.002675  -0.037259   0.638599   0.000003  -0.000000
    35  H   -0.000000   0.000001  -0.000003   0.000003   0.637352  -0.006514
    36  H    0.000000  -0.000000  -0.000000  -0.000000  -0.006514   0.632804
    37  H   -0.000000   0.000001   0.000003  -0.000011  -0.000212  -0.005928
    38  H   -0.000033   0.000142   0.000149   0.006616   0.000019  -0.000229
    39  H    0.005009   0.001354   0.000009  -0.000014   0.000000  -0.000000
    40  H   -0.000012   0.000002   0.000000  -0.000000  -0.000000   0.000000
    41  H    0.000000  -0.000000   0.000000   0.000000  -0.000000  -0.000000
    42  H    0.000003   0.000003   0.000004  -0.000000   0.000016  -0.000000
              37         38         39         40         41         42
     1  C    0.000000  -0.000000   0.000000   0.000000   0.000000   0.000000
     2  N    0.000000   0.000000  -0.000000   0.000000  -0.000000  -0.000000
     3  C    0.000000  -0.000000   0.000000  -0.000000   0.000000  -0.000001
     4  C    0.000000  -0.000002   0.000000  -0.000000  -0.000000   0.000121
     5  C   -0.000000   0.000003   0.000002   0.000000   0.000001   0.002775
     6  N    0.000005  -0.000123  -0.000089   0.000005  -0.000132  -0.011058
     7  C   -0.000000  -0.000005   0.004364   0.001066   0.003736  -0.039517
     8  C    0.000000   0.000005  -0.046061   0.004036   0.001032   0.004561
     9  C    0.000001   0.000372  -0.010250  -0.000176   0.000008  -0.000158
    10  C   -0.000179  -0.011125   0.000210   0.000002  -0.000000   0.000004
    11  C    0.003789  -0.036832  -0.000004   0.000000   0.000000  -0.000000
    12  C    0.001131   0.004703  -0.000001  -0.000000   0.000000   0.000062
    13  C    0.004582   0.000531  -0.000000  -0.000000   0.000000   0.000013
    14  C   -0.041551   0.004939   0.000000   0.000000   0.000000   0.000000
    15  C    0.364925  -0.045538  -0.000000  -0.000000  -0.000000   0.000000
    16  C   -0.037328   0.362425  -0.000000   0.000000   0.000000  -0.000000
    17  C    0.000000  -0.000000   0.367804  -0.038155   0.004700   0.000869
    18  C   -0.000000  -0.000000  -0.043987   0.364084  -0.041564   0.005065
    19  C   -0.000000   0.000000   0.005395  -0.042692   0.363615  -0.041066
    20  C    0.000000  -0.000000   0.000523   0.004922  -0.036659   0.360405
    21  H    0.000000   0.000000  -0.000000  -0.000000  -0.000000   0.000000
    22  H    0.000000  -0.000000  -0.000000   0.000000  -0.000000  -0.000000
    23  H   -0.000000   0.000000   0.000000  -0.000000   0.000000  -0.000000
    24  H    0.000000   0.000000   0.000000   0.000000  -0.000000   0.000000
    25  H    0.000000  -0.000000  -0.000000   0.000000   0.000000  -0.000006
    26  H    0.000000  -0.000000  -0.000000   0.000000   0.000000   0.000003
    27  H   -0.000001  -0.000000   0.000000   0.000000  -0.000000  -0.000005
    28  H    0.000000  -0.000003  -0.000000   0.000000   0.000000   0.000018
[...]
    31  H    0.000166  -0.000029   0.000033   0.000452  -0.011521   0.001041
    32  H   -0.000849   0.000160  -0.000285  -0.000671  -0.003643  -0.001180
    33  H    0.002595  -0.000417   0.000477   0.000402  -0.000051  -0.000055
    34  H   -0.000163  -0.000044   0.000441  -0.004575  -0.000675   0.000002
    35  H    0.417072  -0.025602   0.003878  -0.000254  -0.000012  -0.000008
    36  H   -0.027613   0.400686  -0.032407   0.002876  -0.000001   0.000000
    37  H    0.005769  -0.035295   0.412577  -0.037328  -0.000000  -0.000000
    38  H   -0.001554   0.004995  -0.034791   0.396754   0.000025  -0.000001
    39  H   -0.000003   0.000001  -0.000001   0.000009   0.413087  -0.036025
    40  H    0.000001   0.000000  -0.000000  -0.000000  -0.040456   0.415619
    41  H   -0.000007  -0.000001   0.000000  -0.000000   0.003388  -0.031151
    42  H    0.000700  -0.000139   0.000012  -0.000027  -0.000753   0.003925
              19         20         21         22         23         24
     1  C   -0.000000  -0.000001   0.421490   0.404808   0.411984  -0.045284
     2  N   -0.000000  -0.000000  -0.059114  -0.032884  -0.039285   0.362700
     3  C   -0.000079  -0.000109  -0.007850   0.011585  -0.012652  -0.062139
     4  C    0.000375   0.003579  -0.002326  -0.000371   0.002186   0.004604
     5  C   -0.005573  -0.007128   0.000608   0.000022  -0.000414  -0.001310
     6  N    0.014471  -0.094881   0.000001  -0.000000  -0.000001  -0.000086
     7  C    0.033272   0.332887   0.000000  -0.000000  -0.000000  -0.000008
     8  C   -0.114722   0.068785  -0.000000   0.000000   0.000000   0.000002
     9  C   -0.006470   0.025251   0.000000   0.000000   0.000000   0.000000
    10  C    0.000435  -0.004772   0.000000   0.000000  -0.000000  -0.000004
    11  C    0.000480   0.004600   0.000000  -0.000000  -0.000000  -0.000013
    12  C    0.003866  -0.017811  -0.000003   0.000000   0.000004   0.000189
    13  C   -0.001389   0.009396  -0.000000   0.000000   0.000001   0.000008
    14  C    0.000056  -0.000884   0.000000  -0.000000  -0.000000  -0.000008
    15  C    0.000000   0.000169   0.000000  -0.000000  -0.000000  -0.000001
    16  C    0.000057  -0.000709  -0.000000   0.000000   0.000000  -0.000000
    17  C    0.032439  -0.165199   0.000000   0.000000   0.000000   0.000000
    18  C    0.459065   0.024976  -0.000000  -0.000000  -0.000000  -0.000000
    19  C    5.069461   0.339980   0.000000  -0.000000  -0.000000  -0.000000
    20  C    0.339980   5.294135   0.000000  -0.000000  -0.000000  -0.000001
    21  H    0.000000   0.000000   0.610354  -0.034135  -0.055230  -0.010158
    22  H   -0.000000  -0.000000  -0.034135   0.533983  -0.017122  -0.006477
    23  H   -0.000000  -0.000000  -0.055230  -0.017122   0.556634   0.010095
    24  H   -0.000000  -0.000001  -0.010158  -0.006477   0.010095   0.539128
    25  H    0.000039   0.000168   0.017775  -0.000295  -0.004524  -0.011293
    26  H   -0.000013  -0.000102  -0.005591   0.000251   0.007938   0.011288
    27  H    0.000029   0.000180   0.000455  -0.000055  -0.000395  -0.003068
    28  H   -0.000130  -0.000426  -0.000157   0.000020   0.000015   0.004665
    29  H    0.005569  -0.015031   0.000015   0.000001   0.000006   0.000095
    30  H   -0.003970  -0.004069  -0.000012  -0.000000  -0.000016  -0.000051
    31  H   -0.000136   0.000242  -0.000000  -0.000000  -0.000000  -0.000000
    32  H    0.000911  -0.001853   0.000000   0.000000   0.000000   0.000000
    33  H   -0.000056   0.000036   0.000000  -0.000000  -0.000000  -0.000004
    34  H   -0.000016   0.000115  -0.000000  -0.000000  -0.000000  -0.000000
    35  H   -0.000055   0.000599   0.000000  -0.000000   0.000000   0.000003
    36  H   -0.000001  -0.000001   0.000000   0.000000  -0.000000  -0.000000
    37  H   -0.000000   0.000001   0.000000  -0.000000  -0.000000  -0.000000
    38  H    0.000001  -0.000011  -0.000000   0.000000   0.000000   0.000000
    39  H    0.006224  -0.002008  -0.000000  -0.000000   0.000000   0.000000
    40  H   -0.038212   0.007525  -0.000000   0.000000   0.000000  -0.000000
    41  H    0.398027  -0.026521  -0.000000  -0.000000  -0.000000  -0.000000
    42  H   -0.030702   0.418620   0.000000  -0.000000  -0.000000  -0.000000
              25         26         27         28         29         30
     1  C   -0.005445  -0.008010  -0.000012   0.000206  -0.000117   0.000173
     2  N   -0.065963  -0.038502   0.018626  -0.004895   0.000036  -0.000321
     3  C    0.450211   0.386490  -0.045995  -0.038504  -0.017000   0.012714
     4  C   -0.084469   0.004822   0.425709   0.423243   0.003058  -0.079543
     5  C    0.013707  -0.012677  -0.030613  -0.048127   0.404074   0.460840
     6  N    0.000276  -0.000459  -0.004796   0.003131  -0.021405  -0.060089
     7  C   -0.000329   0.000163  -0.001683   0.004905  -0.012137   0.017709
     8  C   -0.000026   0.000012  -0.000018  -0.000378   0.000246  -0.000838
     9  C   -0.000003   0.000001  -0.000094   0.000247  -0.000701   0.000221
    10  C    0.000007  -0.000007   0.000256   0.000204   0.000145   0.000159
    11  C    0.000019  -0.000095  -0.001314  -0.006404  -0.000779  -0.001756
    12  C   -0.000443   0.001088   0.001078   0.004323   0.022239  -0.031046
    13  C    0.000047  -0.000093  -0.005378   0.002894   0.000485  -0.003699
    14  C    0.000010  -0.000107   0.001644  -0.000561   0.000199  -0.002727
    15  C    0.000001  -0.000004   0.000188   0.000107  -0.000032   0.000249
    16  C   -0.000000   0.000001   0.000446  -0.000286   0.000062  -0.000219
    17  C    0.000003  -0.000000   0.000011  -0.000083   0.001517  -0.000685
    18  C   -0.000002   0.000000  -0.000003   0.000024  -0.001205   0.000465
    19  C    0.000039  -0.000013   0.000029  -0.000130   0.005569  -0.003970
    20  C    0.000168  -0.000102   0.000180  -0.000426  -0.015031  -0.004069
    21  H    0.017775  -0.005591   0.000455  -0.000157   0.000015  -0.000012
    22  H   -0.000295   0.000251  -0.000055   0.000020   0.000001  -0.000000
    23  H   -0.004524   0.007938  -0.000395   0.000015   0.000006  -0.000016
    24  H   -0.011293   0.011288  -0.003068   0.004665   0.000095  -0.000051
    25  H    0.628579  -0.063913   0.011861  -0.010084   0.002500  -0.000473
    26  H   -0.063913   0.586388  -0.011512   0.007347   0.001040   0.002000
    27  H    0.011861  -0.011512   0.495876  -0.028399   0.003321  -0.002641
    28  H   -0.010084   0.007347  -0.028399   0.544115  -0.005054   0.007611
    29  H    0.002500   0.001040   0.003321  -0.005054   0.502957  -0.039486
    30  H   -0.000473   0.002000  -0.002641   0.007611  -0.039486   0.550392
    31  H    0.000000   0.000000  -0.000000   0.000013  -0.000020   0.000006
    32  H    0.000000  -0.000000   0.000003  -0.000007   0.000013  -0.000013
    33  H    0.000016  -0.000001   0.000165   0.000870  -0.000191   0.000181
    34  H    0.000000  -0.000000   0.000001   0.000084  -0.000017   0.000017
    35  H    0.000009   0.000099  -0.000107   0.000071   0.000435  -0.001955
    36  H   -0.000000  -0.000000   0.000005   0.000003  -0.000003   0.000037
    37  H    0.000000  -0.000000   0.000000   0.000001  -0.000000   0.000002
    38  H   -0.000000   0.000000   0.000002  -0.000007   0.000001  -0.000005
    39  H    0.000000   0.000000  -0.000000  -0.000000   0.000005  -0.000002
    40  H   -0.000000   0.000000  -0.000000   0.000000  -0.000003   0.000002
    41  H   -0.000000   0.000000  -0.000000   0.000000   0.000039   0.000012
    42  H    0.000099  -0.000037   0.000007   0.000041  -0.012691   0.004196
              31         32         33         34         35         36
     1  C    0.000000  -0.000000   0.000000   0.000000   0.000002   0.000000
     2  N   -0.000000  -0.000000   0.000000  -0.000000  -0.000014   0.000000
     3  C    0.000002  -0.000001   0.000113   0.000008   0.000667   0.000009
     4  C   -0.000017  -0.000005  -0.001203  -0.000093  -0.006980  -0.000038
     5  C    0.000200  -0.000102   0.000956   0.000126   0.012407   0.000096
     6  N    0.000880  -0.001676   0.004728   0.002508  -0.007578  -0.000252
     7  C    0.009071  -0.002302   0.003163  -0.000507  -0.000470   0.000045
     8  C   -0.063817  -0.056171  -0.009406   0.011699  -0.000019   0.000005
     9  C    0.443374   0.426545  -0.054038  -0.067025  -0.000014  -0.000006
    10  C   -0.053692  -0.024115   0.467171   0.444941  -0.000177   0.000103
    11  C    0.014717  -0.013731  -0.067582  -0.053064   0.005511   0.001812
    12  C   -0.001566   0.005687  -0.018064   0.012185  -0.046153   0.004602
    13  C    0.000166  -0.000849   0.002595  -0.000163   0.417072  -0.027613
    14  C   -0.000029   0.000160  -0.000417  -0.000044  -0.025602   0.400686
    15  C    0.000033  -0.000285   0.000477   0.000441   0.003878  -0.032407
    16  C    0.000452  -0.000671   0.000402  -0.004575  -0.000254   0.002876
    17  C   -0.011521  -0.003643  -0.000051  -0.000675  -0.000012  -0.000001
    18  C    0.001041  -0.001180  -0.000055   0.000002  -0.000008   0.000000
    19  C   -0.000136   0.000911  -0.000056  -0.000016  -0.000055  -0.000001
    20  C    0.000242  -0.001853   0.000036   0.000115   0.000599  -0.000001
    21  H   -0.000000   0.000000   0.000000  -0.000000   0.000000   0.000000
    22  H   -0.000000   0.000000  -0.000000  -0.000000  -0.000000   0.000000
    23  H   -0.000000   0.000000  -0.000000  -0.000000   0.000000  -0.000000
    24  H   -0.000000   0.000000  -0.000004  -0.000000   0.000003  -0.000000
    25  H    0.000000   0.000000   0.000016   0.000000   0.000009  -0.000000
    26  H    0.000000  -0.000000  -0.000001  -0.000000   0.000099  -0.000000
    27  H   -0.000000   0.000003   0.000165   0.000001  -0.000107   0.000005
    28  H    0.000013  -0.000007   0.000870   0.000084   0.000071   0.000003
    29  H   -0.000020   0.000013  -0.000191  -0.000017   0.000435  -0.000003
    30  H    0.000006  -0.000013   0.000181   0.000017  -0.001955   0.000037
    31  H    0.543064  -0.032270   0.000461  -0.005580  -0.000000   0.000000
    32  H   -0.032270   0.532573   0.005662  -0.002367  -0.000005  -0.000002
    33  H    0.000461   0.005662   0.504715  -0.017085   0.000023  -0.000002
    34  H   -0.005580  -0.002367  -0.017085   0.528292   0.000013   0.000000
    35  H   -0.000000  -0.000005   0.000023   0.000013   0.497413  -0.003400
    36  H    0.000000  -0.000002  -0.000002   0.000000  -0.003400   0.515433
    37  H   -0.000001   0.000001   0.000014  -0.000039  -0.000249  -0.003771
    38  H   -0.000094   0.000645  -0.000199   0.002255   0.000054  -0.000352
    39  H    0.000158   0.000002  -0.000013  -0.000038  -0.000000  -0.000000
    40  H   -0.000029  -0.000037  -0.000001  -0.000000   0.000000   0.000000
    41  H   -0.000000   0.000001   0.000001   0.000000   0.000000  -0.000000
    42  H    0.000018  -0.000001   0.000039   0.000002   0.000101   0.000001
              37         38         39         40         41         42
     1  C    0.000000  -0.000000   0.000000   0.000000   0.000000   0.000001
     2  N    0.000000  -0.000000  -0.000000   0.000000   0.000000  -0.000001
     3  C   -0.000000  -0.000001  -0.000000   0.000000   0.000000   0.000478
     4  C    0.000004   0.000003   0.000000  -0.000000  -0.000001   0.000076
     5  C   -0.000008   0.000021   0.000037  -0.000004   0.000115   0.007561
     6  N    0.000035  -0.000497  -0.000273   0.000019  -0.000273  -0.010714
     7  C    0.000005  -0.000199   0.016372  -0.001454   0.005477  -0.041665
     8  C    0.000000   0.000398  -0.055298   0.008151   0.001136   0.003094
     9  C    0.000036  -0.001302  -0.003640  -0.000132   0.000063   0.000149
    10  C   -0.000201  -0.004133   0.000986   0.000019  -0.000004  -0.000057
    11  C    0.005913  -0.036946  -0.000055  -0.000006  -0.000000  -0.000029
    12  C   -0.000072   0.016259   0.000108  -0.000013   0.000063  -0.003691
    13  C    0.005769  -0.001554  -0.000003   0.000001  -0.000007   0.000700
    14  C   -0.035295   0.004995   0.000001   0.000000  -0.000001  -0.000139
    15  C    0.412577  -0.034791  -0.000001  -0.000000   0.000000   0.000012
    16  C   -0.037328   0.396754   0.000009  -0.000000  -0.000000  -0.000027
    17  C   -0.000000   0.000025   0.413087  -0.040456   0.003388  -0.000753
    18  C   -0.000000  -0.000001  -0.036025   0.415619  -0.031151   0.003925
    19  C   -0.000000   0.000001   0.006224  -0.038212   0.398027  -0.030702
    20  C    0.000001  -0.000011  -0.002008   0.007525  -0.026521   0.418620
    21  H    0.000000  -0.000000  -0.000000  -0.000000  -0.000000   0.000000
    22  H   -0.000000   0.000000  -0.000000   0.000000  -0.000000  -0.000000
    23  H   -0.000000   0.000000   0.000000   0.000000  -0.000000  -0.000000
    24  H   -0.000000   0.000000   0.000000  -0.000000  -0.000000  -0.000000
    25  H    0.000000  -0.000000   0.000000  -0.000000  -0.000000   0.000099
    26  H   -0.000000   0.000000   0.000000   0.000000   0.000000  -0.000037
    27  H    0.000000   0.000002  -0.000000  -0.000000  -0.000000   0.000007
    28  H    0.000001  -0.000007  -0.000000   0.000000   0.000000   0.000041
    29  H   -0.000000   0.000001   0.000005  -0.000003   0.000039  -0.012691
    30  H    0.000002  -0.000005  -0.000002   0.000002   0.000012   0.004196
    31  H   -0.000001  -0.000094   0.000158  -0.000029  -0.000000   0.000018
    32  H    0.000001   0.000645   0.000002  -0.000037   0.000001  -0.000001
    33  H    0.000014  -0.000199  -0.000013  -0.000001   0.000001   0.000039
    34  H   -0.000039   0.002255  -0.000038  -0.000000   0.000000   0.000002
    35  H   -0.000249   0.000054  -0.000000   0.000000   0.000000   0.000101
    36  H   -0.003771  -0.000352  -0.000000   0.000000  -0.000000   0.000001
    37  H    0.516041  -0.003782  -0.000000  -0.000000   0.000000   0.000000
    38  H   -0.003782   0.525864   0.000001  -0.000000  -0.000000  -0.000000
    39  H   -0.000000   0.000001   0.525652  -0.004422  -0.000355   0.000041
    40  H   -0.000000  -0.000000  -0.004422   0.518600  -0.003582  -0.000249
    41  H    0.000000  -0.000000  -0.000355  -0.003582   0.517453  -0.003308
    42  H    0.000000  -0.000000   0.000041  -0.000249  -0.003308   0.499461
 Mulliken charges:
               1
     1  C   -0.333304
     2  N   -0.352477
     3  C   -0.170056
     4  C   -0.244595
     5  C   -0.410853
     6  N   -0.138595
     7  C    0.153128
     8  C    0.042039
     9  C   -0.319014
    10  C   -0.406778
    11  C    0.092899
    12  C    0.087952
    13  C   -0.228742
    14  C   -0.124652
    15  C   -0.158779
    16  C   -0.128922
    17  C   -0.186850
    18  C   -0.161956
    19  C   -0.163234
    20  C   -0.189724
    21  H    0.123878
    22  H    0.140670
    23  H    0.140776
    24  H    0.207131
    25  H    0.121932
    26  H    0.132195
    27  H    0.176220
    28  H    0.139366
    29  H    0.177812
    30  H    0.176629
    31  H    0.154877
    32  H    0.169083
    33  H    0.176580
    34  H    0.148599
    35  H    0.154697
    36  H    0.142137
    37  H    0.140348
    38  H    0.136594
    39  H    0.139453
    40  H    0.138666
    41  H    0.139427
    42  H    0.165443
 Sum of Mulliken charges =  -0.00000
 Mulliken charges with hydrogens summed into heavy atoms:
               1
     1  C    0.072020
     2  N   -0.145346
     3  C    0.084072
     4  C    0.070991
     5  C   -0.056412
     6  N   -0.138595
     7  C    0.153128
     8  C    0.042039
     9  C    0.004945
    10  C   -0.081599
    11  C    0.092899
    12  C    0.087952
    13  C   -0.074045
    14  C    0.017485
    15  C   -0.018431
    16  C    0.007672
    17  C   -0.047397
    18  C   -0.023290
    19  C   -0.023807
    20  C   -0.024281
 Electronic spatial extent (au):  <R**2>=           6563.7358
 Charge=             -0.0000 electrons
 Dipole moment (field-independent basis, Debye):
    X=             -0.5565    Y=             -0.5629    Z=              0.7316  Tot=              1.0779
 Quadrupole moment (field-independent basis, Debye-Ang):
   XX=           -118.8002   YY=           -116.8039   ZZ=           -116.2181
   XY=              5.4028   XZ=              2.8450   YZ=              2.6837
 Traceless Quadrupole moment (field-independent basis, Debye-Ang):
   XX=             -1.5261   YY=              0.4702   ZZ=              1.0560
   XY=              5.4028   XZ=              2.8450   YZ=              2.6837
 Octapole moment (field-independent basis, Debye-Ang**2):
  XXX=             -7.5536  YYY=             19.6511  ZZZ=              7.0465  XYY=              4.3509
  XXY=            -31.9238  XXZ=             29.1344  XZZ=            -21.9866  YZZ=              4.2682
  YYZ=            -13.3530  XYZ=             14.9867
 Hexadecapole moment (field-independent basis, Debye-Ang**3):
 XXXX=          -5192.9639 YYYY=          -2747.7237 ZZZZ=           -819.9441 XXXY=             52.1403
 XXXZ=            -31.4094 YYYX=              2.5347 YYYZ=             27.3574 ZZZX=             10.1815
 ZZZY=             -3.8182 XXYY=          -1378.1970 XXZZ=          -1000.8850 YYZZ=           -595.5559
 XXYZ=             15.6297 YYXZ=             -3.2357 ZZXY=              6.5766
 N-N= 1.510410880750D+03 E-N=-4.896474265659D+03  KE= 8.041004490614D+02
 Unable to Open any file for archive entry.
 1\1\GINC-NOTCH341\SP\RM062X\def2TZVP\C18H22N2\U6032257\23-Sep-2022\0\\
 # M062X/def2tzvp int=(grid=ultrafine) nmr=giao guess=read geom=check\\
 SecN5.xyz\\0,1\C,0,-1.3954129466,-4.1390240818,4.7488423026\N,0,-1.388
 0664283,-3.2317696323,3.609420713\C,0,-0.2046172922,-3.3809238562,2.77
 16626546\C,0,-0.2186744669,-2.3764558022,1.6217990147\C,0,0.9776662885
 ,-2.5635036009,0.6885082244\N,0,1.0243473908,-1.5424115001,-0.35681270
 28\C,0,2.2879718149,-1.2287278852,-0.9318626714\C,0,2.552737933,0.0185
 687315,-1.5455343717\C,0,1.572918129,1.1736176124,-1.6931499759\C,0,0.
 228600466,1.0627697548,-0.9623090134\C,0,-0.5783051975,-0.0956909221,-
 1.4730822331\C,0,-0.1398677874,-1.3937226327,-1.1699128353\C,0,-0.8587
 710639,-2.500570049,-1.633293356\C,0,-2.0075273165,-2.3210546865,-2.40
 22526473\C,0,-2.4379343747,-1.0340365389,-2.7236962895\C,0,-1.71857827
 55,0.0681891093,-2.262268443\C,0,3.8353996727,0.2392545514,-2.06360949
 91\C,0,4.8544982411,-0.7042327739,-1.9870171211\C,0,4.5886371139,-1.92
 78615603,-1.378351239\C,0,3.3200608714,-2.1836551819,-0.8698935239\H,0
 ,-0.4943177269,-4.0781054692,5.3869920377\H,0,-2.2708959144,-3.9395022
 006,5.3735177853\H,0,-1.4722816426,-5.1717082552,4.3900697539\H,0,-1.4
 333855878,-2.2721617569,3.9447423792\H,0,0.7409644746,-3.2830297106,3.
 3426293924\H,0,-0.2092411936,-4.4025408597,2.3666617438\H,0,-1.1596333
 927,-2.4811802446,1.0755896194\H,0,-0.1917612374,-1.3526769335,2.01713
 87012\H,0,1.8987211112,-2.4646049736,1.2694928756\H,0,0.9738453908,-3.
 5907597501,0.2848581883\H,0,2.0826595437,2.0871524643,-1.3626512417\H,
 0,1.3645952225,1.3168060345,-2.7619739121\H,0,0.4067925685,0.938129874
 8,0.1115928683\H,0,-0.325389513,1.9965566275,-1.1017220467\H,0,-0.5175
 343256,-3.5022706739,-1.3942605277\H,0,-2.5588674243,-3.1868826281,-2.
 7560292899\H,0,-3.3303132206,-0.889133042,-3.3244928689\H,0,-2.0539187
 129,1.0741264461,-2.5008513914\H,0,4.036024656,1.2012801474,-2.5295931
 45\H,0,5.8368548785,-0.4851070893,-2.3928666939\H,0,5.3577883347,-2.69
 12630488,-1.3094157728\H,0,3.1183109392,-3.1538840137,-0.4329154419\\V
 ersion=ES64L-G16RevC.01\State=1-A\HF=-808.5948467\RMSD=3.694e-09\Dipol
 e=0.0600198,0.086108,0.4108666\Quadrupole=-3.7023902,3.8615929,-0.1592
 027,-1.8401501,1.7133652,-2.2268332\PG=C01 [X(C18H22N2)]\\@
 The archive entry for this job was punched.


 IN THE FIGHT BETWEEN YOU AND THE WORLD, BACK THE WORLD

                                        -- FRANZ KAFKA
 Job cpu time:       0 days  2 hours 30 minutes 19.2 seconds.
 Elapsed time:       0 days  0 hours  3 minutes 18.3 seconds.
 File lengths (MBytes):  RWF=    318 Int=      0 D2E=      0 Chk=     53 Scr=      1
 Normal termination of Gaussian 16 at Fri Sep 23 16:32:21 2022.
